<?xml version="1.0"?>
<VTKFile type="UnstructuredGrid"  version="0.1"  >
<UnstructuredGrid>
<Piece  NumberOfPoints="1268" NumberOfCells="4847">
<Points>
<DataArray  type="Float64"  NumberOfComponents="3"  format="ascii">1.994716987487452 0.01317707561264319 -1.202466945460223e-11  1.374072606111497 -0.08614134488653273 -5.388997575085332  -1.285941478930618 0.1916557790035214 -5.691288663606836  -1.59032616235459 -0.4515196446136259 1.626303258728257e-17  0.4950030257755884 2.521650519233041 -5.495391852657774  -0.4107718940653654 -2.429115409112172 -5.58531208084276  -0.9314707163843408 -3.006923447963563 4.87890977618477e-17  1.161824811771535 2.948440156756841 -3.391384395534658e-14  2.146749234505421 0.002696741478414759 -0.5615078450779066  2.330988047973839 -0.000873250973709995 -1.113141311680313  2.540713632977715 -0.1384292375506191 -1.637427654548237  2.645241452520652 -0.2872312815961211 -2.18637082393926  2.504842461151312 -0.2752146673621067 -2.746850782899552  2.287876352721185 -0.2088259978706829 -3.283011632728322  2.137771360922677 -0.2093380261300688 -3.844996501809416  1.970142554575494 -0.2193701374385486 -4.401638277082749  1.701580801829277 -0.1696632515169769 -4.915066532844666  1.398049690886424 0.4419377546899956 -5.387643705321969  1.183972204621215 0.9208338616597355 -5.413149504812257  0.7621482426349403 1.234356207118232 -5.461782499987256  0.2539805730796886 1.370727420898931 -5.519751404145364  -0.2689415860383004 1.319053689498898 -5.578906487138381  -0.7357170559581984 1.076180709179107 -5.631191713357971  -1.086003096318238 0.6812820615514149 -5.669884670156524  -1.65706961757681 -0.5275128747266272 -0.6240725009925172  -1.829082870387909 -0.8347372240299333 -1.153553189134448  -2.030635262011336 -1.097965926806997 -1.693320688638939  -2.148557703924963 -0.9683820133813712 -2.295450526931833  -2.119047321408695 -0.7521727279271558 -2.890676896601294  -1.972500555455803 -0.7106310836492745 -3.509380855831461  -1.885028119342598 -0.4902108162504233 -4.093718100793141  -1.832050776792238 -0.1313823297003599 -4.617858136599065  -1.636180550340053 0.1151199882480144 -5.165527944859976  -1.540434086810702 0.1014447694855235 -7.644826989049428e-17  -1.339902801239663 0.6191128040412099 2.218327606354497e-17  -0.9949589579071262 1.053322092476122 2.12059320661159e-17  -0.5243975458638882 1.346285776146202 7.754217898549941e-16  0.01399251627036286 1.481823287560149 3.252316763596149e-17  0.5696211504784076 1.47677978548424 -7.207855520904863e-17  1.105448032340458 1.331487337928338 1.951563910473908e-16  1.561367740818086 1.018090979386763 -2.179459114756194e-16  1.860006992193919 0.551530302300456 1.369433074745588e-16  -0.152869286718376 2.506583809965366 -5.568804938302105  -0.7781210310064858 2.335338381675429 -5.639249366957451  -1.340550096787874 2.011723800088065 -5.702178028336585  -1.803922993566052 1.555830170950866 -5.753534898075912  -2.144678763029901 1.000979069722826 -5.790734833138769  -2.346903237737564 0.3811866585909049 -5.812061421922149  -2.406990243842066 -0.2684488461825228 -5.817196438260218  -2.318433628103212 -0.9144163570965761 -5.805488779558074  -2.059391262210163 -1.511004864267824 -5.774580158166454  -1.615755841275718 -1.983465489741105 -5.72306417450185  -1.043145925381342 -2.287058241276404 -5.657361969815248  -0.6986882361605687 -2.420627649803484 -5.024556445072709  -0.8272574030199392 -2.685291244074475 -4.476216325063944  -0.8113210073272845 -3.118860027310894 -4.01596683617901  -0.7618552434953355 -3.481598098596065 -3.504026669625047  -0.7509882165597778 -3.609083979854663 -2.886473298216772  -0.7986167670519319 -3.732483084086931 -2.268445488219849  -0.8276969497603353 -3.810997815301134 -1.64593496945388  -0.7425506523451623 -3.557242155569485 -1.078322423839125  -0.7147449622328144 -3.21189056194362 -0.5511080601316157  -1.482234509376526 -2.778582553401298 -5.854479658363816e-16  -1.970737176894139 -2.437284655419533 2.764697292186607e-16  -2.362818572203899 -1.988727212877528 2.439101268600111e-16  -2.642390785384022 -1.462244173776716 5.051059276813266e-16  -2.812149102113852 -0.89052423419162 2.276851973687203e-16  -2.877946727920729 -0.2976446157883296 -1.219909928720168e-16  -2.842947107925845 0.2978601752284433 4.065446096494693e-17  -2.70313036896374 0.8776122116387211 -5.041496169361013e-16  -2.452324348076021 1.418519584933707 4.379274460317988e-16  -2.098265626135573 1.898294456130726 1.951060033519619e-16  -1.658391347368763 2.301023318502569 -1.789574489620802e-16  -1.154148079923361 2.619757341302747 -2.081203863085907e-15  -0.6042202207747882 2.851073703499478 -3.577841418755692e-16  -0.02416138323675775 2.990516581461941 4.065982498622179e-16  0.5710641261211448 3.028216945076794 -1.46882551317968e-16  0.6414151130412097 2.696325287154043 -4.983333021490838  0.771852374565919 2.778456367279237 -4.445188759107248  0.8805845204306011 2.73078881179073 -3.897720120696569  0.9481597620953167 2.69798349057175 -3.343104559074628  0.9815370707090804 2.778214865778854 -2.789250505759619  1.013475345489448 2.861817704396183 -2.235671116027784  1.055849759321274 2.898356228459238 -1.677594140621302  1.093646323460014 2.92793989028903 -1.118725590781912  1.124098871622056 2.957526991478201 -0.5594169689370629  0.2477015793419729 -2.415655802610486 -5.510682951113449  0.8844491790088972 -2.245867158009595 -5.438931443942415  1.464891069119211 -1.932330028996181 -5.373934600293736  1.955087092649627 -1.489613175355717 -5.319502697776375  2.318355026965356 -0.937054784961175 -5.279744576064058  2.524994411863564 -0.307899182343253 -5.257941630215678  2.574632820450045 0.3531084349228537 -5.254020561031156  2.465743861849647 1.006614152640354 -5.268052816559671  2.183897076015212 1.604484044160622 -5.301550147358176  1.722560240631265 2.07491696755195 -5.35506775502591  1.13806318635062 2.378906583716481 -5.422118662603529  1.742182153284979 2.73179858498085 5.854691697147836e-16  2.262480931380501 2.395264875892136 -2.601681534737615e-16  2.698000706832733 1.954727370266727 -3.903113804560263e-16  3.021530388777258 1.426473918441798 1.707421408502106e-16  3.223363606607101 0.8405687193648443 -2.844806418042028e-16  3.305434793487241 0.2261994274297442 -4.472186606099012e-16  3.269241566985055 -0.3926051469820059 3.171555149681837e-16  3.113478077610213 -0.9924495549400153 3.510830505762065e-16  2.840400132149515 -1.548806515270482 -1.707368614952523e-16  2.466120284856568 -2.042983582774378 9.732831365154574e-17  2.008125599488538 -2.460814027017948 -3.577575055983979e-16  1.482521285196868 -2.789563899556613 -4.886146623064541e-17  0.9057866143556688 -3.01678997208197 -2.439392613813594e-16  0.2964958724913082 -3.130681163554852 3.414395345104792e-16  -0.32338307292875 -3.126978161260848 2.926910878106614e-16  -1.29067345658392 -0.3506098753383553 -5.690421630247788  -1.068897680254163 -0.8451623229646739 -5.663999894259847  -0.6782440885714781 -1.219621806060448 -5.6187489875115  -0.168757542531344 -1.390394566692369 -5.560546895724229  0.3611301401510615 -1.294122251639114 -5.500717901478111  0.8191548613516448 -1.005201308695582 -5.449538098373106  1.16817203978903 -0.5892762115769014 -5.411042670828763  1.960898302630318 -0.551652302616722 -8.131516293641286e-17  1.751009740180289 -1.077278642631261 7.445724005953314e-16  1.394016468000002 -1.516729095803803 1.136104663605282e-15  0.9227767039454898 -1.830301465573364 3.434443593283319e-16  0.3780412068884804 -1.984007749105097 8.617772484356591e-16  -0.1885780664025548 -1.977994130030172 2.357202029695971e-16  -0.7327557451871473 -1.821291124380143 1.942410916395698e-17  -1.191068596016128 -1.491774666596192 2.975009434367945e-16  -1.480405544894888 -1.006855825633415 6.954512630084263e-16  -1.812414118534285 0.2561131097252937 -2.664867827914479  2.421751940242729 0.6298287624476981 -1.933377861698098  0.7556418177061754 1.42269463362527 -4.617654324361507  0.003134751711410342 1.574821943356493 -0.9318675177876981  1.015098001669947 1.51699057942374 -0.9441494884276413  0.6193243625380082 1.764115149411371 -1.862230514405671  -0.4757031201037318 1.549728101933577 -1.958273018773558  0.1126459993007786 1.698838152590054 -2.957602797129454  -0.3405660022430232 1.569615851499001 -4.678135257405353  1.818199099779932 0.7365610114574719 -3.763003518505052  -0.9541815370276669 1.23451227632913 -2.875526912859068  -1.269464226480212 1.016489154450913 -4.672047638709048  1.301562892980348 1.557566760682666 -2.802482532053872  -0.7813756340336595 1.414221906310649 -3.725761628685261  -1.58370798409762 0.5643609111372817 -3.581008460136619  -0.988817348255397 1.158392548936659 -1.014254585170146  -1.607700527190565 0.2800106654898483 -1.030081240453645  -1.388203055800784 0.7951310659851955 -1.943712885648593  0.8261955720421881 1.570157055202129 -3.620947225245673  1.681455131778566 1.410849015379531 -1.876189895849114  1.878739160554727 0.943024132521903 -0.9866418074548234  2.103426639579445 1.000735947836943 -2.593434794762663  1.62623803052506 0.6468498306152269 -4.727220189271843  -1.882943490361709 -0.1546739965127431 -1.761716647663214  0.05868355051519467 1.656538949473053 -3.863342338366238  2.465845305360337 0.2632819454094029 -2.663569745038379  1.994842599423799 0.5019775153043848 -0.4779055074204815  2.1671824130763 0.4980244878585698 -1.027636182799239  1.710213566460811 0.9718796190568162 -0.4957578884333736  1.845584590132108 0.2253887364997403 -4.583879812097906  1.579035044615276 0.2924902970866011 -5.101748935835201  1.409777182251665 0.7868327264427526 -5.07202467441607  -1.039178737375989 1.089168173550246 -5.170746090958521  -1.377687418630729 0.6683636420802941 -5.233117919580046  -1.641402128985454 0.4875654733502939 -4.648722230221863  -1.765467255797776 -0.2695484060062747 -1.079683539430899  -1.617858736076732 -0.08318463488274264 -0.5123563299218489  -1.474019211051276 0.4496529111656123 -0.5150171376928306  2.417677350191343 0.3274903893149403 -1.506992657970159 
[...]
<PointData  Tensors="strain"> 
<DataArray  type="Float64"  Name="strain"  NumberOfComponents="9" format="ascii">-5.1129624293859817e-02 -9.5754724447302143e-03 -2.2036888896475088e-01 -9.5754724447302143e-03 7.8225183934142930e-03 -1.3113491923625976e-02 -2.2036888896475088e-01 -1.3113491923625976e-02 1.5693096452852140e-01  -1.6067675528097619e-01 3.7800722239614781e-02 1.2521570464802256e-01 3.7800722239614781e-02 2.9812446929883935e-01 -7.2912752764265010e-02 1.2521570464802256e-01 -7.2912752764265010e-02 7.8020721553047753e-03  -1.3023411291213169e-01 6.0061261226806321e-02 -1.4636833985091899e-01 6.0061261226806328e-02 2.9004487313916244e-01 7.8065007059749170e-02 -1.4636833985091899e-01 7.8065007059749170e-02 -9.5716169922323412e-03  -6.5101323006421713e-02 -3.3088944743288710e-02 2.0316072849026137e-01 -3.3088944743288710e-02 2.5569684954662836e-03 -4.1808787470858519e-02 2.0316072849026137e-01 -4.1808787470858519e-02 1.7644249075537941e-01  7.8095307740104689e-02 -7.1369461972196260e-03 4.6476853565286261e-02 -7.1369461972196216e-03 -7.4721430472841036e-02 3.8730373743765444e-02 4.6476853565286261e-02 3.8730373743765451e-02 1.5223345183127518e-02  1.4350118988723456e-01 -5.1080448041534426e-03 -4.5350598976267302e-02 -5.1080448041534434e-03 -1.2215738533238246e-01 -2.9682891936707055e-02 -4.5350598976267302e-02 -2.9682891936707055e-02 1.5699265947717797e-02  7.5937373952210960e-03 1.9089889930988778e-02 -5.2397806048357448e-02 1.9089889930988778e-02 -1.8086189985851736e-02 1.3175774725366476e-01 -5.2397806048357448e-02 1.3175774725366476e-01 4.2929501490533990e-02  4.4468456498278517e-03 2.5965865861532204e-02 4.8630289515474712e-02 2.5965865861532204e-02 4.1084977768127438e-02 -5.3572395757875001e-02 4.8630289515474712e-02 -5.3572395757875001e-02 -3.4663811136167032e-02  -1.7145432277826578e-01 -3.5293941659388740e-02 -1.1908388435890797e-01 -3.5293941659388740e-02 1.4632715196640045e-01 -6.4370401925488027e-02 -1.1908388435890797e-01 -6.4370401925488027e-02 1.3249968837037263e-01  -1.9356880322436598e-01 -4.4623726981327369e-02 -1.0071029714575755e-01 -4.4623726981327369e-02 2.0873733260408478e-01 -5.5219390719037795e-02 -1.0071029714575755e-01 -5.5219390719037795e-02 1.1015196205460231e-01  -2.2088360380602434e-01 -8.3700093078836850e-03 -8.8334417073747701e-02 -8.3700093078836885e-03 2.3401011550098541e-01 -3.1716233945272440e-02 -8.8334417073747701e-02 -3.1716233945272447e-02 1.2588361883271626e-01  -2.4130141655161644e-01 2.2997019072363678e-02 2.2275556334367202e-03 2.2997019072363678e-02 2.2553864565540863e-01 -5.0829564450866394e-02 2.2275556334367197e-03 -5.0829564450866394e-02 1.6265968370853265e-01  -2.0783975013256317e-01 -4.3436714087386813e-03 1.0473085120247733e-01 -4.3436714087386813e-03 2.7705559417490638e-01 -6.4945707675122727e-02 1.0473085120247733e-01 -6.4945707675122727e-02 8.3618553363928316e-02  -1.9809543999150014e-01 -4.1748165579465105e-02 9.2320173768460537e-02 -4.1748165579465105e-02 3.1725572604426799e-01 -2.2647775684686899e-02 9.2320173768460537e-02 -2.2647775684686899e-02 3.0267610915867733e-02  -2.0971484695285122e-01 -1.5901999938050498e-02 8.1376374249177291e-02 -1.5901999938050502e-02 3.2822751089666435e-01 -1.4281580702828202e-02 8.1376374249177291e-02 -1.4281580702828202e-02 3.3912140478052306e-02  -1.9298457347340911e-01 2.8900361082984998e-03 1.0762404590926834e-01 2.8900361082984998e-03 3.1030001669150392e-01 -3.8459240098127470e-02 1.0762404590926834e-01 -3.8459240098127456e-02 3.1388659410551654e-02  -1.5648230940943267e-01 2.5957229683686755e-02 1.4237168659984428e-01 2.5957229683686755e-02 2.9927830867932398e-01 -5.0381430669575178e-02 1.4237168659984428e-01 -5.0381430669575178e-02 1.0044551654172599e-02  -1.3533557302879576e-01 -1.1558674239741437e-01 1.5329978154358725e-01 -1.1558674239741437e-01 2.4098704652783601e-01 -1.5532306216144235e-02 1.5329978154358723e-01 -1.5532306216144234e-02 3.8979912481887910e-02  2.8632455866943688e-03 -2.3025114748677702e-01 1.2164238617196535e-01 -2.3025114748677702e-01 9.0375205094520794e-02 4.5185153771404162e-02 1.2164238617196535e-01 4.5185153771404162e-02 5.2025455184629248e-02  1.7007744129194438e-01 -1.7852566328434577e-01 9.2491698482569704e-02 -1.7852566328434571e-01 -1.0287980390186698e-01 9.1426003899348560e-02 9.2491698482569704e-02 9.1426003899348560e-02 7.0646218629749791e-02  2.3997102243249394e-01 -4.0092039160072389e-02 5.7799614382929819e-02 -4.0092039160072375e-02 -1.7416759011031385e-01 1.3739738501227966e-01 5.7799614382929833e-02 1.3739738501227966e-01 7.5329581492955905e-02  2.1430232767586113e-01 1.0053899871032601e-01 -6.2255199424263909e-03 1.0053899871032602e-01 -1.3556967938273662e-01 1.6708170795317659e-01 -6.2255199424263892e-03 1.6708170795317662e-01 6.7193533491217455e-02  9.4234440766227390e-02 1.9148139311218648e-01 -5.5996233215067096e-02 1.9148139311218648e-01 6.0354958174011174e-03 1.5934566130657474e-01 -5.5996233215067096e-02 1.5934566130657474e-01 3.8896037924317485e-02  -4.6687084508535114e-02 1.7435982147288129e-01 -1.0614046915391351e-01 1.7435982147288129e-01 1.6584843805469962e-01 1.3174046545919521e-01 -1.0614046915391351e-01 1.3174046545919518e-01 2.4272750589464931e-02  -1.7944928423225123e-01 -6.0290004761153976e-03 1.0524395820664456e-01 -6.0290004761153976e-03 1.2463617061205147e-01 1.1656888306284287e-02 1.0524395820664456e-01 1.1656888306284287e-02 1.4788958598272725e-01  -1.8283007527091524e-01 -2.4717211488201950e-02 9.8712011217646597e-02 -2.4717211488201950e-02 2.0166590619640909e-01 6.4694512091591338e-03 9.8712011217646597e-02 6.4694512091591338e-03 8.7894226258255201e-02  -2.0922312271113799e-01 -3.1055018355779240e-02 8.5989657313498724e-02 -3.1055018355779240e-02 2.1226125953144215e-01 2.5549358917633512e-02 8.5989657313498724e-02 2.5549358917633512e-02 1.2440747788729208e-01  -2.3945888883950983e-01 -1.9180976307574083e-02 1.7399960419855767e-02 -1.9180976307574083e-02 2.3900489878002615e-01 4.6803875427991359e-02 1.7399960419855771e-02 4.6803875427991345e-02 1.4228782818816976e-01  -2.3540556589279232e-01 -3.8802882721030406e-04 -4.1389688448907974e-02 -3.8802882721030617e-04 2.6634609226811129e-01 7.9019479749406277e-02 -4.1389688448907988e-02 7.9019479749406277e-02 1.1790406491741884e-01  -2.1765596274143417e-01 -2.5491986038245193e-02 -5.6888138883429570e-02 -2.5491986038245193e-02 2.9822376058792216e-01 9.0382766049956959e-02 -5.6888138883429570e-02 9.0382766049956959e-02 6.7778366850746438e-02  -2.2322624116263270e-01 -1.5649184787855017e-02 -4.5803172052518944e-02 -1.5649184787855017e-02 2.9525188950575637e-01 1.0231051307505229e-01 -4.5803172052518944e-02 1.0231051307505229e-01 7.7690179818727820e-02  -2.2837255857606414e-01 3.4150651286117766e-02 -6.0352674914706979e-02 3.4150651286117766e-02 2.8002448680887543e-01 8.8665146156111277e-02 -6.0352674914706979e-02 8.8665146156111277e-02 1.0248180023366799e-01  -1.8663068936757024e-01 5.1232677389045238e-02 -1.1867844759313627e-01 5.1232677389045245e-02 2.7363435652254431e-01 9.3541849170218253e-02 -1.1867844759313627e-01 9.3541849170218253e-02 6.8286569645917020e-02  -9.5948757691610376e-02 2.7639871260905472e-03 1.9343973919964841e-01 2.7639871260905472e-03 1.2503734814686251e-02 -6.0799657408295842e-02 1.9343973919964841e-01 -6.0799657408295842e-02 2.0355742772986618e-01  -7.6509164521215117e-02 3.1023120145145199e-02 1.6287583413697718e-01 3.1023120145145199e-02 -6.8212240214661074e-03 -1.1642611654738011e-01 1.6287583413697718e-01 -1.1642611654738011e-01 2.0047600925628192e-01  -5.8722087654706441e-02 6.1811754250263098e-02 1.3225963667706589e-01 6.1811754250263098e-02 -3.4483831479126099e-02 -1.4534679698387526e-01 1.3225963667706589e-01 -1.4534679698387526e-01 2.1569097305949503e-01  -1.8006495512848671e-02 4.4098231963858953e-02 7.2912674774705727e-02 4.4098231963858932e-02 -6.6572843072497237e-02 -1.8112916548507871e-01 7.2912674774705727e-02 -1.8112916548507871e-01 2.0899594357653722e-01  1.3404244954567498e-04 3.1642971462898378e-02 4.1399304889672972e-02 3.1642971462898378e-02 -9.5065457022209990e-02 -1.9344127890495966e-01 4.1399304889672972e-02 -1.9344127890495966e-01 2.2573034966477518e-01  3.9416075581293194e-03 1.1788115682115523e-03 -3.2969607466811900e-02 1.1788115682115532e-03 -9.6945947689512965e-02 -1.9963514603196750e-01 -3.2969607466811900e-02 -1.9963514603196750e-01 2.2879850759515188e-01  1.0155957235783506e-02 -2.1871959309994023e-02 -7.5298641372991984e-02 -2.1871959309994023e-02 -8.7667340407939581e-02 -1.9069919665784754e-01 -7.5298641372991984e-02 -1.9069919665784754e-01 1.9810956440546179e-01  -2.1695255231845130e-02 -5.0091801773773599e-02 -1.6925504423561202e-01 -5.0091801773773599e-02 -4.8165594498043529e-02 -1.3295994315158333e-01 -1.6925504423561202e-01 -1.3295994315158333e-01 2.0605818113256824e-01  -6.9349632504789580e-02 -4.1515909832091323e-02 -2.1105903174661658e-01 -4.1515909832091323e-02 -2.3334262396933786e-02 -6.4514619029124060e-02 -2.1105903174661658e-01 -6.4514619029124060e-02 2.3332166986729364e-01  6.4489547491332844e-02 3.0920355928494684e-02 3.1084022636187914e-02 3.0920355928494684e-02 -6.4285602503225778e-02 6.1167621134403966e-02 3.1084022636187914e-02 6.1167621134403966e-02 1.9270658546901933e-02  5.6714548922700059e-02 6.1193846896987862e-02 1.9442727420814539e-02 6.1193846896987869e-02 -5.4752097813001048e-02 6.6018812115835698e-02 1.9442727420814539e-02 6.6018812115835698e-02 2.1040829496151665e-02  7.8956253853292163e-03 6.9585639005310923e-02 -1.4607315163930811e-03 6.9585639005310923e-02 -1.7420107041839328e-02 6.8866630570177334e-02 -1.4607315163930811e-03 6.8866630570177334e-02 2.8002402362150132e-02  -2.5025382133838505e-02 7.5305618139814914e-02 -3.7468017524780892e-02 7.5305618139814914e-02 4.5700329766145013e-02 6.1683546620565112e-02 -3.7468017524780892e-02 6.1683546620565112e-02 2.5972304663269023e-03  -5.6447451267039317e-02 4.8588461652052529e-02 -5.0180292085507984e-02 4.8588461652052529e-02 8.3160715699351184e-02 5.4668359423276872e-02 -5.0180292085507977e-02 5.4668359423276872e-02 -2.2103334340065812e-03  -7.2770479953262288e-02 1.5763654218342426e-02 -5.9571347080362283e-02 1.5763654218342429e-02 8.7508565556497928e-02 3.8560363952870470e-02 -5.9571347080362304e-02 3.8560363952870456e-02 8.8776407991849379e-03  -6.5412480777930049e-02 -1.9474423219388793e-02 -7.3401417280455933e-02 -1.9474423219388793e-02 8.3706463434947045e-02 2.3254141762370006e-02 -7.3401417280455947e-02 2.3254141762369996e-02 7.2104532075472211e-03  -3.9430558666909199e-02 -6.5254058305213664e-02 -6.2937447307934366e-02 -6.5254058305213664e-02 6.7664890340176281e-02 1.4012386296791089e-03 -6.2937447307934366e-02 1.4012386296791092e-03 -6.6022138086408522e-03  -7.4724225545133203e-04 -8.1526170518387564e-02 -7.1453168559640151e-02 -8.1526170518387564e-02 7.6987529183627527e-03 1.2793545405702378e-02 -7.1453168559640179e-02 1.2793545405702378e-02 1.4039022377614695e-02  4.1178953126453650e-02 -3.0808721080316626e-02 -7.1132043157128913e-02 -3.0808721080316633e-02 -6.3458957391156659e-02 -1.1503834913850345e-02 -7.1132043157128913e-02 -1.1503834913850333e-02 3.3241118364183073e-02  1.0584832479513168e-01 -4.4252773919870758e-02 -5.9086621122563319e-02 -4.4252773919870758e-02 -9.3457390848771776e-02 -3.7367863157020988e-02 -5.9086621122563319e-02 -3.7367863157020988e-02 1.7222100699271638e-02  1.7395750799797924e-01 -3.5291658906255498e-02 -6.4416484878912939e-02 -3.5291658906255498e-02 -1.5440978205556091e-01 -8.3521472223450091e-02 -6.4416484878912939e-02 -8.3521472223450091e-02 6.2271530806281838e-02  1.7054521832650613e-01 -2.2587371076285005e-02 -5.7639386577488426e-02 -2.2587371076284998e-02 -9.6501438740875023e-02 -1.3499586788000173e-01 -5.7639386577488426e-02 -1.3499586788000173e-01 1.2923493698677674e-02  1.4000414207970110e-01 -3.3703772428286239e-03 -3.4550974542350434e-02 -3.3703772428286221e-03 -7.0070210260545315e-02 -1.1050865649325699e-01 -3.4550974542350434e-02 -1.1050865649325703e-01 -1.9213724833617704e-02  1.2004550446817694e-01 4.4530516178475565e-03 -2.4575851267392007e-02 4.4530516178475548e-03 -9.5224133830694016e-02 -7.2161740071425298e-02 -2.4575851267392000e-02 -7.2161740071425284e-02 8.0829832689485511e-03  1.0056813102765379e-01 -2.2920722834772225e-02 -4.6575486345901237e-02 -2.2920722834772225e-02 -1.2752880453575802e-01 -4.6249849132839319e-02 -4.6575486345901237e-02 -4.6249849132839319e-02 6.8180997454666090e-02  7.7953745130834154e-02 -2.6695143742589897e-02 -3.5870190433886978e-02 -2.6695143742589904e-02 -1.2074053182995065e-01 -2.4162423906006730e-02 -3.5870190433886978e-02 -2.4162423906006730e-02 7.3415566385918757e-02  5.0530956146696400e-02 -3.6913125504924600e-02 -7.3434832852486177e-03 -3.6913125504924600e-02 -8.1807393395887829e-02 2.8737895154686215e-02 -7.3434832852486186e-03 2.8737895154686215e-02 4.3828448230589373e-02  3.5675512710723688e-02 -6.6385183830332747e-02 6.3586320549452588e-04 -6.6385183830332747e-02 -6.3670154649713359e-02 9.7132119481150095e-02 6.3586320549452609e-04 9.7132119481150109e-02 6.3207791110826111e-02  3.9146293080575767e-02 -4.8869776777930016e-02 -1.9393830720426598e-02 -4.8869776777930016e-02 -8.8196782872147605e-02 1.2606534309695047e-01 -1.9393830720426605e-02 1.2606534309695047e-01 1.0396509469231491e-01  1.5259516031124763e-02 1.2777569964171284e-02 -2.7015285229345699e-02 1.2777569964171284e-02 -2.2751112748307503e-02 1.2445366064110940e-01 -2.7015285229345699e-02 1.2445366064110940e-01 2.9929361696593805e-02  1.9727355492673505e-02 5.1600560399957911e-03 -8.0160419774999731e-03 5.1600560399957911e-03 -2.3707660299349755e-02 1.1443941866685738e-01 -8.0160419774999731e-03 1.1443941866685738e-01 1.9183667691954124e-02  2.4836395866797454e-02 -8.8045132168724470e-03 1.7268727954490859e-02 -8.8045132168724470e-03 -2.7913202522012587e-02 1.1172167901157647e-01 1.7268727954490859e-02 1.1172167901157647e-01 1.8783159880972757e-02  3.0043332601810142e-02 -2.0635223667719381e-02 3.4562492912349509e-02 -2.0635223667719381e-02 -2.1874323814137942e-02 9.9319893175187260e-02 3.4562492912349488e-02 9.9319893175187260e-02 7.9656837378456764e-03  2.3551954173306994e-02 -1.8437911778153852e-02 5.3638851978307159e-02 -1.8437911778153852e-02 -1.6899818774139073e-02 9.1939567666536479e-02 5.3638851978307159e-02 9.1939567666536479e-02 6.4181268787987791e-03  4.5614155503457363e-02 -1.1915735663264449e-02 4.3718384619080723e-02 -1.1915735663264449e-02 4.6165160449149656e-04 6.8419621842552611e-02 4.3718384619080737e-02 6.8419621842552611e-02 -4.0423008092614919e-02  4.9715928865136386e-02 -1.8367044264358066e-02 5.6129917584944553e-02 -1.8367044264358066e-02 4.7282960727476559e-03 4.0287319434622042e-02 5.6129917584944553e-02 4.0287319434622042e-02 -4.7880925599201603e-02  1.8281118950972241e-02 -3.5327474071442183e-02 8.0513964275327671e-02 -3.5327474071442183e-02 1.9766640827639487e-02 3.7905755719100397e-02 8.0513964275327671e-02 3.7905755719100397e-02 -2.2465182244039518e-02  2.1328898510772982e-02 -3.7862155274423999e-02 7.3576919418319911e-02 -3.7862155274423999e-02 3.9242445335927176e-02 1.0230041967977032e-02 7.3576919418319883e-02 1.0230041967977025e-02 -4.8096487850764778e-02  7.6054756794502578e-03 -3.7199345345456963e-02 7.7203283090728908e-02 -3.7199345345456963e-02 5.6075336623222172e-02 -1.5113252993771008e-03 7.7203283090728950e-02 -1.5113252993771008e-03 -4.9790831313138793e-02  -1.4981477685618028e-02 -2.1094050176611770e-02 7.1500745868312912e-02 -2.1094050176611766e-02 6.4204043821188717e-02 -2.1833370609948922e-02 7.1500745868312884e-02 -2.1833370609948936e-02 -3.6307019123835264e-02  -2.1830366470437925e-02 5.1685779662662473e-03 7.2140720313712298e-02 5.1685779662662473e-03 5.2611510289442602e-02 -3.3225219136754663e-02 7.2140720313712298e-02 -3.3225219136754663e-02 -1.6597923537956156e-02  3.6713025316762963e-03 7.6562798186657110e-03 4.6200594328680601e-02 7.6562798186657101e-03 5.8949875452679781e-02 -3.9758849989016028e-02 4.6200594328680601e-02 -3.9758849989016028e-02 -5.3961150022795321e-02  1.2183318955479227e-02 -3.0126821174967334e-02 -1.3199145836902052e-02 -3.0126821174967330e-02 6.9203327948865523e-02 -6.0506686131852574e-02 -1.3199145836902052e-02 -6.0506686131852581e-02 -7.4047399331077013e-02  -1.4150308292493722e-02 2.5492388338719807e-02 3.5247543165124150e-02 2.5492388338719807e-02 4.2854912225762834e-02 -5.3093689882042307e-02 3.5247543165124150e-02 -5.3093689882042321e-02 -1.8303702152759831e-02  6.4678432905859437e-02 -3.2388714466017168e-02 4.3943834177358775e-02 -3.2388714466017182e-02 -8.2928941216126303e-02 2.5190447600982966e-02 4.3943834177358761e-02 2.5190447600982966e-02 3.7963457528295816e-02  6.9620486704165610e-02 -3.5394899527693584e-02 4.5425941114273699e-02 -3.5394899527693598e-02 -9.1347641440332625e-02 3.6018452375747038e-04 4.5425941114273699e-02 3.6018452375747038e-04 4.0470981467658283e-02  8.4568684299257610e-02 -6.0780891346949972e-02 5.1228772198520477e-02 -6.0780891346949972e-02 -1.1568538969303904e-01 -8.7899445934367260e-03 5.1228772198520477e-02 -8.7899445934367295e-03 6.7301960723498935e-02  1.1381096973900272e-01 -5.7869882334032424e-02 5.5867311440612855e-02 -5.7869882334032424e-02 -1.4146425195624279e-01 1.2479817599934691e-02 5.5867311440612855e-02 1.2479817599934691e-02 8.1800195166175274e-02  1.0420207665187081e-01 -5.1288189255369196e-02 5.3571855264453787e-02 -5.1288189255369182e-02 -1.3624581714021461e-01 2.3319409648845591e-02 5.3571855264453787e-02 2.3319409648845591e-02 8.2057982750991035e-02  9.4351693310191082e-02 -3.7370008314679418e-02 4.1550291960106858e-02 -3.7370008314679404e-02 -1.3530697035246714e-01 1.9808577974383217e-02 4.1550291960106851e-02 1.9808577974383217e-02 8.3231190589900542e-02  6.8990923469914867e-02 -3.1247539556147664e-02 2.9471967925850651e-02 -3.1247539556147664e-02 -1.2416850621489499e-01 8.4895944888978368e-03 2.9471967925850651e-02 8.4895944888978368e-03 8.7991856227299339e-02  4.4935732828846907e-02 -2.8718299970294438e-02 5.5068842311250150e-02 -2.8718299970294438e-02 -1.0391715745863234e-01 -1.0426217681065908e-02 5.5068842311250150e-02 -1.0426217681065908e-02 8.2671369223082228e-02  3.7600983471425146e-02 -1.0743459897249943e-02 6.2911645590674428e-02 -1.0743459897249943e-02 -2.8994898180903856e-02 -3.1145173422822293e-03 6.2911645590674428e-02 -3.1145173422822288e-03 -4.9095842190474770e-03  1.2663792192493961e-01 4.7006992097032727e-02 -3.4516997958902097e-02 4.7006992097032727e-02 -1.1294738103883355e-01 -5.7215964443779022e-02 -3.4516997958902104e-02 -5.7215964443779022e-02 2.3964256320997718e-02  1.0484854761109905e-01 1.1751256034388377e-01 -8.2822693689730987e-03 1.1751256034388377e-01 -7.9726746308439483e-02 -6.3034826951008135e-02 -8.2822693689731004e-03 -6.3034826951008135e-02 2.2854555294770231e-02  2.8560542832134096e-02 1.3369063755455141e-01 8.9850966107128411e-03 1.3369063755455141e-01 -2.4956182018697978e-02 -6.1546932817159603e-02 8.9850966107128342e-03 -6.1546932817159603e-02 3.8300355253817940e-02  -4.9767610991316269e-02 1.2896701336198471e-01 2.5257258431085668e-02 1.2896701336198471e-01 4.8357719278389416e-02 -5.6874526194088164e-02 2.5257258431085668e-02 -5.6874526194088164e-02 4.4871207712280620e-02  -9.3742516646313973e-02 7.7054660119021373e-02 3.5462452462378911e-02 7.7054660119021373e-02 7.0621478575205815e-02 -5.6283881629714948e-02 3.5462452462378911e-02 -5.6283881629714948e-02 5.7713118826487483e-02  -9.8295154057176370e-02 2.6460074827578554e-02 5.3617543690720693e-02 2.6460074827578554e-02 9.3954338460621928e-02 -4.0123948401427904e-02 5.3617543690720693e-02 -4.0123948401427890e-02 3.3585310147378297e-02  -7.6663076794607807e-02 -2.8020585200770075e-02 6.3297208735116933e-02 -2.8020585200770075e-02 7.7279507492048455e-02 -2.4576401677370494e-02 6.3297208735116933e-02 -2.4576401677370494e-02 2.0641053338597230e-02  -7.4070533210745776e-02 -3.9893541232702397e-02 4.6390888500200719e-02 -3.9893541232702397e-02 5.3403503917559436e-02 -2.3374268996638831e-02 4.6390