<?xml version="1.0"?>
<VTKFile type="UnstructuredGrid"  version="0.1"  >
<UnstructuredGrid>
<Piece  NumberOfPoints="1268" NumberOfCells="4847">
<Points>
<DataArray  type="Float64"  NumberOfComponents="3"  format="ascii">1.994716987487452 0.01317707561264319 -1.202466945460223e-11  1.374072606111497 -0.08614134488653273 -5.388997575085332  -1.285941478930618 0.1916557790035214 -5.691288663606836  -1.59032616235459 -0.4515196446136259 1.626303258728257e-17  0.4950030257755884 2.521650519233041 -5.495391852657774  -0.4107718940653654 -2.429115409112172 -5.58531208084276  -0.9314707163843408 -3.006923447963563 4.87890977618477e-17  1.161824811771535 2.948440156756841 -3.391384395534658e-14  2.146749234505421 0.002696741478414759 -0.5615078450779066  2.330988047973839 -0.000873250973709995 -1.113141311680313  2.540713632977715 -0.1384292375506191 -1.637427654548237  2.645241452520652 -0.2872312815961211 -2.18637082393926  2.504842461151312 -0.2752146673621067 -2.746850782899552  2.287876352721185 -0.2088259978706829 -3.283011632728322  2.137771360922677 -0.2093380261300688 -3.844996501809416  1.970142554575494 -0.2193701374385486 -4.401638277082749  1.701580801829277 -0.1696632515169769 -4.915066532844666  1.398049690886424 0.4419377546899956 -5.387643705321969  1.183972204621215 0.9208338616597355 -5.413149504812257  0.7621482426349403 1.234356207118232 -5.461782499987256  0.2539805730796886 1.370727420898931 -5.519751404145364  -0.2689415860383004 1.319053689498898 -5.578906487138381  -0.7357170559581984 1.076180709179107 -5.631191713357971  -1.086003096318238 0.6812820615514149 -5.669884670156524  -1.65706961757681 -0.5275128747266272 -0.6240725009925172  -1.829082870387909 -0.8347372240299333 -1.153553189134448  -2.030635262011336 -1.097965926806997 -1.693320688638939  -2.148557703924963 -0.9683820133813712 -2.295450526931833  -2.119047321408695 -0.7521727279271558 -2.890676896601294  -1.972500555455803 -0.7106310836492745 -3.509380855831461  -1.885028119342598 -0.4902108162504233 -4.093718100793141  -1.832050776792238 -0.1313823297003599 -4.617858136599065  -1.636180550340053 0.1151199882480144 -5.165527944859976  -1.540434086810702 0.1014447694855235 -7.644826989049428e-17  -1.339902801239663 0.6191128040412099 2.218327606354497e-17  -0.9949589579071262 1.053322092476122 2.12059320661159e-17  -0.5243975458638882 1.346285776146202 7.754217898549941e-16  0.01399251627036286 1.481823287560149 3.252316763596149e-17  0.5696211504784076 1.47677978548424 -7.207855520904863e-17  1.105448032340458 1.331487337928338 1.951563910473908e-16  1.561367740818086 1.018090979386763 -2.179459114756194e-16  1.860006992193919 0.551530302300456 1.369433074745588e-16  -0.152869286718376 2.506583809965366 -5.568804938302105  -0.7781210310064858 2.335338381675429 -5.639249366957451  -1.340550096787874 2.011723800088065 -5.702178028336585  -1.803922993566052 1.555830170950866 -5.753534898075912  -2.144678763029901 1.000979069722826 -5.790734833138769  -2.346903237737564 0.3811866585909049 -5.812061421922149  -2.406990243842066 -0.2684488461825228 -5.817196438260218  -2.318433628103212 -0.9144163570965761 -5.805488779558074  -2.059391262210163 -1.511004864267824 -5.774580158166454  -1.615755841275718 -1.983465489741105 -5.72306417450185  -1.043145925381342 -2.287058241276404 -5.657361969815248  -0.6986882361605687 -2.420627649803484 -5.024556445072709  -0.8272574030199392 -2.685291244074475 -4.476216325063944  -0.8113210073272845 -3.118860027310894 -4.01596683617901  -0.7618552434953355 -3.481598098596065 -3.504026669625047  -0.7509882165597778 -3.609083979854663 -2.886473298216772  -0.7986167670519319 -3.732483084086931 -2.268445488219849  -0.8276969497603353 -3.810997815301134 -1.64593496945388  -0.7425506523451623 -3.557242155569485 -1.078322423839125  -0.7147449622328144 -3.21189056194362 -0.5511080601316157  -1.482234509376526 -2.778582553401298 -5.854479658363816e-16  -1.970737176894139 -2.437284655419533 2.764697292186607e-16  -2.362818572203899 -1.988727212877528 2.439101268600111e-16  -2.642390785384022 -1.462244173776716 5.051059276813266e-16  -2.812149102113852 -0.89052423419162 2.276851973687203e-16  -2.877946727920729 -0.2976446157883296 -1.219909928720168e-16  -2.842947107925845 0.2978601752284433 4.065446096494693e-17  -2.70313036896374 0.8776122116387211 -5.041496169361013e-16  -2.452324348076021 1.418519584933707 4.379274460317988e-16  -2.098265626135573 1.898294456130726 1.951060033519619e-16  -1.658391347368763 2.301023318502569 -1.789574489620802e-16  -1.154148079923361 2.619757341302747 -2.081203863085907e-15  -0.6042202207747882 2.851073703499478 -3.577841418755692e-16  -0.02416138323675775 2.990516581461941 4.065982498622179e-16  0.5710641261211448 3.028216945076794 -1.46882551317968e-16  0.6414151130412097 2.696325287154043 -4.983333021490838  0.771852374565919 2.778456367279237 -4.445188759107248  0.8805845204306011 2.73078881179073 -3.897720120696569  0.9481597620953167 2.69798349057175 -3.343104559074628  0.9815370707090804 2.778214865778854 -2.789250505759619  1.013475345489448 2.861817704396183 -2.235671116027784  1.055849759321274 2.898356228459238 -1.677594140621302  1.093646323460014 2.92793989028903 -1.118725590781912  1.124098871622056 2.957526991478201 -0.5594169689370629  0.2477015793419729 -2.415655802610486 -5.510682951113449  0.8844491790088972 -2.245867158009595 -5.438931443942415  1.464891069119211 -1.932330028996181 -5.373934600293736  1.955087092649627 -1.489613175355717 -5.319502697776375  2.318355026965356 -0.937054784961175 -5.279744576064058  2.524994411863564 -0.307899182343253 -5.257941630215678  2.574632820450045 0.3531084349228537 -5.254020561031156  2.465743861849647 1.006614152640354 -5.268052816559671  2.183897076015212 1.604484044160622 -5.301550147358176  1.722560240631265 2.07491696755195 -5.35506775502591  1.13806318635062 2.378906583716481 -5.422118662603529  1.742182153284979 2.73179858498085 5.854691697147836e-16  2.262480931380501 2.395264875892136 -2.601681534737615e-16  2.698000706832733 1.954727370266727 -3.903113804560263e-16  3.021530388777258 1.426473918441798 1.707421408502106e-16  3.223363606607101 0.8405687193648443 -2.844806418042028e-16  3.305434793487241 0.2261994274297442 -4.472186606099012e-16  3.269241566985055 -0.3926051469820059 3.171555149681837e-16  3.113478077610213 -0.9924495549400153 3.510830505762065e-16  2.840400132149515 -1.548806515270482 -1.707368614952523e-16  2.466120284856568 -2.042983582774378 9.732831365154574e-17  2.008125599488538 -2.460814027017948 -3.577575055983979e-16  1.482521285196868 -2.789563899556613 -4.886146623064541e-17  0.9057866143556688 -3.01678997208197 -2.439392613813594e-16  0.2964958724913082 -3.130681163554852 3.414395345104792e-16  -0.32338307292875 -3.126978161260848 2.926910878106614e-16  -1.29067345658392 -0.3506098753383553 -5.690421630247788  -1.068897680254163 -0.8451623229646739 -5.663999894259847  -0.6782440885714781 -1.219621806060448 -5.6187489875115  -0.168757542531344 -1.390394566692369 -5.560546895724229  0.3611301401510615 -1.294122251639114 -5.500717901478111  0.8191548613516448 -1.005201308695582 -5.449538098373106  1.16817203978903 -0.5892762115769014 -5.411042670828763  1.960898302630318 -0.551652302616722 -8.131516293641286e-17  1.751009740180289 -1.077278642631261 7.445724005953314e-16  1.394016468000002 -1.516729095803803 1.136104663605282e-15  0.9227767039454898 -1.830301465573364 3.434443593283319e-16  0.3780412068884804 -1.984007749105097 8.617772484356591e-16  -0.1885780664025548 -1.977994130030172 2.357202029695971e-16  -0.7327557451871473 -1.821291124380143 1.942410916395698e-17  -1.191068596016128 -1.491774666596192 2.975009434367945e-16  -1.480405544894888 -1.006855825633415 6.954512630084263e-16  -1.812414118534285 0.2561131097252937 -2.664867827914479  2.421751940242729 0.6298287624476981 -1.933377861698098  0.7556418177061754 1.42269463362527 -4.617654324361507  0.003134751711410342 1.574821943356493 -0.9318675177876981  1.015098001669947 1.51699057942374 -0.9441494884276413  0.6193243625380082 1.764115149411371 -1.862230514405671  -0.4757031201037318 1.549728101933577 -1.958273018773558  0.1126459993007786 1.698838152590054 -2.957602797129454  -0.3405660022430232 1.569615851499001 -4.678135257405353  1.818199099779932 0.7365610114574719 -3.763003518505052  -0.9541815370276669 1.23451227632913 -2.875526912859068  -1.269464226480212 1.016489154450913 -4.672047638709048  1.301562892980348 1.557566760682666 -2.802482532053872  -0.7813756340336595 1.414221906310649 -3.725761628685261  -1.58370798409762 0.5643609111372817 -3.581008460136619  -0.988817348255397 1.158392548936659 -1.014254585170146  -1.607700527190565 0.2800106654898483 -1.030081240453645  -1.388203055800784 0.7951310659851955 -1.943712885648593  0.8261955720421881 1.570157055202129 -3.620947225245673  1.681455131778566 1.410849015379531 -1.876189895849114  1.878739160554727 0.943024132521903 -0.9866418074548234  2.103426639579445 1.000735947836943 -2.593434794762663  1.62623803052506 0.6468498306152269 -4.727220189271843  -1.882943490361709 -0.1546739965127431 -1.761716647663214  0.05868355051519467 1.656538949473053 -3.863342338366238  2.465845305360337 0.2632819454094029 -2.663569745038379  1.994842599423799 0.5019775153043848 -0.4779055074204815  2.1671824130763 0.4980244878585698 -1.027636182799239  1.710213566460811 0.9718796190568162 -0.4957578884333736  1.845584590132108 0.2253887364997403 -4.583879812097906  1.579035044615276 0.2924902970866011 -5.101748935835201  1.409777182251665 0.7868327264427526 -5.07202467441607  -1.039178737375989 1.089168173550246 -5.170746090958521  -1.377687418630729 0.6683636420802941 -5.233117919580046  -1.641402128985454 0.4875654733502939 -4.648722230221863  -1.765467255797776 -0.2695484060062747 -1.079683539430899  -1.617858736076732 -0.08318463488274264 -0.5123563299218489  -1.474019211051276 0.4496529111656123 -0.5150171376928306  2.417677350191343 0.3274903893149403 -1.506992657970159 
[...]
<PointData  Tensors="strain"> 
<DataArray  type="Float64"  Name="strain"  NumberOfComponents="9" format="ascii">-5.0264980270151804e-02 -7.4795423582697477e-03 -1.6208660450544271e-01 -7.4795423582697477e-03 5.0527190514572905e-03 4.7747000399422403e-03 -1.6208660450544271e-01 4.7747000399422403e-03 1.0982320299853783e-01  -1.3378368675197080e-01 2.9663683676045702e-02 1.0467584535988644e-01 2.9663683676045695e-02 2.3186632956007014e-01 -6.1101218752061787e-02 1.0467584535988644e-01 -6.1101218752061787e-02 -3.9163403695362262e-03  -1.1182468752176956e-01 4.8060084439466674e-02 -1.1959282611082199e-01 4.8060084439466674e-02 2.3104084200986791e-01 6.0100468432240234e-02 -1.1959282611082199e-01 6.0100468432240248e-02 -2.0856186456270721e-02  -5.9672934176334742e-02 -2.7427099376284889e-02 1.4718055813019482e-01 -2.7427099376284889e-02 1.2105315090377947e-03 -4.7013565258190629e-02 1.4718055813019482e-01 -4.7013565258190629e-02 1.2469966376996899e-01  6.3264580092049008e-02 -4.2871903134853034e-03 3.5791240277939791e-02 -4.2871903134853026e-03 -5.8169951627592559e-02 2.5903865079093411e-02 3.5791240277939798e-02 2.5903865079093411e-02 5.7522728704861815e-03  1.2195295119767596e-01 -8.3827725408793939e-04 -3.5528044034309099e-02 -8.3827725408793907e-04 -9.7867770077871896e-02 -2.6023537375626262e-02 -3.5528044034309120e-02 -2.6023537375626262e-02 1.7473092605028693e-03  1.0368240400322396e-02 2.0324314666256962e-02 -4.7091877466687145e-02 2.0324314666256959e-02 -1.5002749946442401e-02 9.0509931554097797e-02 -4.7091877466687145e-02 9.0509931554097797e-02 1.9991837587727844e-02  2.5070202211319955e-03 2.0093850583661144e-02 3.6846465436356730e-02 2.0093850583661144e-02 3.3152083515745556e-02 -3.4377485925086201e-02 3.6846465436356730e-02 -3.4377485925086201e-02 -2.9722886229347850e-02  -1.4737641062057188e-01 -2.7129428486866291e-02 -8.5305704148773087e-02 -2.7129428486866291e-02 1.0920010490141954e-01 -4.5911723864426261e-02 -8.5305704148773087e-02 -4.5911723864426261e-02 1.0041309430378947e-01  -1.6425081441041378e-01 -3.2914672372960675e-02 -7.9616355074394560e-02 -3.2914672372960675e-02 1.5842798691830765e-01 -4.0877622102616765e-02 -7.9616355074394560e-02 -4.0877622102616765e-02 8.3445986371228534e-02  -1.8797854136571721e-01 -6.8576823917857813e-03 -7.0503256341272441e-02 -6.8576823917857813e-03 1.8229716855818739e-01 -2.2895732811842213e-02 -7.0503256341272441e-02 -2.2895732811842217e-02 9.4905565387776128e-02  -2.0586274648698560e-01 1.8855368916411992e-02 2.8253108237010775e-03 1.8855368916411992e-02 1.7681056847581025e-01 -4.2527871400051112e-02 2.8253108237010788e-03 -4.2527871400051105e-02 1.2540149970580730e-01  -1.7847802102155610e-01 -3.7863586226557729e-03 8.3218849474408330e-02 -3.7863586226557729e-03 2.2341066602403911e-01 -5.4910992970595734e-02 8.3218849474408330e-02 -5.4910992970595734e-02 5.6722308846546388e-02  -1.6906053544770894e-01 -3.6129936768097663e-02 7.2357107756007261e-02 -3.6129936768097670e-02 2.5610828471343056e-01 -1.6973108584928336e-02 7.2357107756007261e-02 -1.6973108584928336e-02 1.2391480808149816e-02  -1.7830167412468301e-01 -1.4420022083278443e-02 6.3508619922131582e-02 -1.4420022083278448e-02 2.6729222613362619e-01 -1.1203378209308756e-02 6.3508619922131582e-02 -1.1203378209308756e-02 1.3068180812084416e-02  -1.6444603307510669e-01 -4.0900628876796397e-04 8.6534694526158279e-02 -4.0900628876795980e-04 2.5128723663560437e-01 -3.3250688003399510e-02 8.6534694526158279e-02 -3.3250688003399510e-02 1.2421700987188714e-02  -1.3787176678920082e-01 1.9521640802243174e-02 1.1571864125780988e-01 1.9521640802243178e-02 2.3864300922354678e-01 -4.2408723148299708e-02 1.1571864125780988e-01 -4.2408723148299708e-02 1.5170449286709994e-03  -1.1598356377817906e-01 -9.4942592919269223e-02 1.2702793988446551e-01 -9.4942592919269223e-02 1.8658177203582671e-01 -1.2559307907781979e-02 1.2702793988446551e-01 -1.2559307907781979e-02 2.4015142302570423e-02  -7.6914997499630735e-03 -1.8823268101435370e-01 9.8070490325177687e-02 -1.8823268101435370e-01 6.8699364493510731e-02 3.5874016522244576e-02 9.8070490325177687e-02 3.5874016522244576e-02 3.3651574786223382e-02  1.2888720632949011e-01 -1.4280567322044888e-01 7.1294382545974047e-02 -1.4280567322044888e-01 -9.1353874710016506e-02 7.2065478630758142e-02 7.1294382545974047e-02 7.2065478630758156e-02 4.7800998365021122e-02  1.8677460112455116e-01 -3.2064144956171346e-02 4.3021610928071892e-02 -3.2064144956171346e-02 -1.4808925298614012e-01 1.0935616042366135e-01 4.3021610928071892e-02 1.0935616042366134e-01 4.9899753262931279e-02  1.6530745259092630e-01 8.0750929018023429e-02 -8.6200858855705643e-03 8.0750929018023429e-02 -1.1948033124620368e-01 1.3431122345282814e-01 -8.6200858855705696e-03 1.3431122345282814e-01 4.7379110138256873e-02  6.6764652649396336e-02 1.5179810187716314e-01 -4.5205592741743419e-02 1.5179810187716314e-01 2.0358777901620488e-03 1.2840217907397436e-01 -4.5205592741743419e-02 1.2840217907397436e-01 1.7501544857676323e-02  -4.9921144078008121e-02 1.3867513792080285e-01 -8.5780306985719409e-02 1.3867513792080283e-01 1.2867049105781117e-01 1.0482857591738805e-01 -8.5780306985719409e-02 1.0482857591738805e-01 1.2446043556034922e-02  -1.4944839828817180e-01 6.3028097396368259e-04 7.3264080988611924e-02 6.3028097396368281e-04 9.0540893569808684e-02 7.7326207362379334e-03 7.3264080988611924e-02 7.7326207362379343e-03 1.1190998304404455e-01  -1.5225867648048724e-01 -1.3555991756222092e-02 7.2595398921858664e-02 -1.3555991756222092e-02 1.5365809843493358e-01 1.3371014406646225e-03 7.2595398921858650e-02 1.3371014406646238e-03 6.1223708635933731e-02  -1.7766921607058161e-01 -2.1662808909724576e-02 6.2956482365666130e-02 -2.1662808909724576e-02 1.6442014632534888e-01 1.7052543061069007e-02 6.2956482365666130e-02 1.7052543061069007e-02 9.2440974983347718e-02  -2.0314630348499965e-01 -1.6790561301360200e-02 1.2420755542197787e-02 -1.6790561301360200e-02 1.8892643596992198e-01 3.5584790259803808e-02 1.2420755542197790e-02 3.5584790259803802e-02 1.0626905645755917e-01  -1.9963305494006292e-01 -1.5021452313506755e-03 -3.5950637783736895e-02 -1.5021452313506755e-03 2.1044473812524772e-01 6.3918089456828212e-02 -3.5950637783736895e-02 6.3918089456828212e-02 8.7269192587653519e-02  -1.8452527565115537e-01 -2.5202774983259218e-02 -4.7785893859050431e-02 -2.5202774983259218e-02 2.3610229290148163e-01 7.1715505115639053e-02 -4.7785893859050431e-02 7.1715505115639053e-02 4.7107497780771349e-02  -1.8740774243153349e-01 -1.4970280509706068e-02 -4.0485613773351165e-02 -1.4970280509706058e-02 2.3329457626328839e-01 8.4118161343007661e-02 -4.0485613773351158e-02 8.4118161343007661e-02 5.3654570816408793e-02  -1.9505873128246401e-01 2.6544718966846740e-02 -5.1986745428486518e-02 2.6544718966846743e-02 2.2459488024816684e-01 7.0386328005452303e-02 -5.1986745428486532e-02 7.0386328005452303e-02 7.4011015274170810e-02  -1.6078347416109259e-01 4.3520016288016147e-02 -9.9272810830735844e-02 4.3520016288016147e-02 2.1808383396809472e-01 7.4584406718742002e-02 -9.9272810830735844e-02 7.4584406718742002e-02 4.6433438493495252e-02  -9.1500968718711273e-02 6.3209459090696482e-03 1.3747453134522758e-01 6.3209459090696482e-03 9.4868553847450281e-03 -5.4500597528920648e-02 1.3747453134522758e-01 -5.4500597528920648e-02 1.5464214763994205e-01  -6.7742172817409407e-02 2.9047145205997493e-02 1.1388531639448952e-01 2.9047145205997493e-02 -1.1162352307780185e-02 -9.3657682279728635e-02 1.1388531639448952e-01 -9.3657682279728635e-02 1.4795262118404554e-01  -5.3149987438777239e-02 5.8820506389588481e-02 8.8416590406938306e-02 5.8820506389588467e-02 -3.6444604287534758e-02 -1.1053802575977321e-01 8.8416590406938306e-02 -1.1053802575977317e-01 1.6360867377420094e-01  -1.6096792785081356e-02 3.7928386124007403e-02 4.3063097440337358e-02 3.7928386124007403e-02 -6.1371291640536701e-02 -1.3591452101838686e-01 4.3063097440337358e-02 -1.3591452101838686e-01 1.5062457567380241e-01  -5.2120960627076619e-05 2.7614600439080889e-02 2.1353085679836417e-02 2.7614600439080889e-02 -9.0759423531941760e-02 -1.4207578182617095e-01 2.1353085679836417e-02 -1.4207578182617095e-01 1.7051572144168781e-01  2.9874350055739195e-03 -1.2872992228058228e-03 -3.4212278506513621e-02 -1.2872992228058228e-03 -8.9773571141320035e-02 -1.4278753284894205e-01 -3.4212278506513635e-02 -1.4278753284894205e-01 1.6826077326480793e-01  6.9230723757488623e-03 -2.3690961664814110e-02 -6.3278593893613788e-02 -2.3690961664814110e-02 -8.3018337411439005e-02 -1.3311094095987805e-01 -6.3278593893613788e-02 -1.3311094095987805e-01 1.4660175790260305e-01  -2.3068816420589257e-02 -4.4846558165453992e-02 -1.3427639924765847e-01 -4.4846558165453992e-02 -4.0926298494885306e-02 -8.6724988106744810e-02 -1.3427639924765847e-01 -8.6724988106744810e-02 1.4358604108925768e-01  -6.2826238006488414e-02 -3.6666841828410131e-02 -1.6336288896202045e-01 -3.6666841828410131e-02 -2.0662285595791970e-02 -3.0599070085286690e-02 -1.6336288896202045e-01 -3.0599070085286690e-02 1.6636977384405335e-01  4.9324936902968783e-02 2.5054065592986733e-02 2.6859314342959132e-02 2.5054065592986733e-02 -4.8349413674159167e-02 4.6553485577787823e-02 2.6859314342959132e-02 4.6553485577787823e-02 1.0371834680937287e-02  4.5965276258760429e-02 4.8082772350113406e-02 1.9186362154597559e-02 4.8082772350113406e-02 -4.6326573772675725e-02 5.2040868637033395e-02 1.9186362154597559e-02 5.2040868637033395e-02 1.5069205724256473e-02  1.6161615844991113e-03 5.3120941525683182e-02 3.0597029120186000e-03 5.3120941525683182e-02 -1.3582207305311518e-02 5.3674731711906988e-02 3.0597029120185987e-03 5.3674731711906988e-02 2.2488877833418106e-02  -2.5853758369578112e-02 5.7039330296539667e-02 -3.2655957018020744e-02 5.7039330296539667e-02 4.1899294008605537e-02 4.6575015761595659e-02 -3.2655957018020744e-02 4.6575015761595659e-02 -2.1281071594443303e-03  -4.8932493471533202e-02 3.7157783474405917e-02 -3.8127789388497368e-02 3.7157783474405910e-02 7.2483731058948161e-02 4.0560318071829853e-02 -3.8127789388497375e-02 4.0560318071829866e-02 -8.1591431824612117e-03  -5.7170326432149136e-02 1.3596267985699365e-02 -4.3157225698813348e-02 1.3596267985699365e-02 6.9692106267554343e-02 2.6303302028286867e-02 -4.3157225698813348e-02 2.6303302028286873e-02 8.7616564837245136e-04  -5.0558307240047444e-02 -1.4264157433584236e-02 -5.3539522304619308e-02 -1.4264157433584239e-02 6.4252526981245270e-02 1.2629832167205758e-02 -5.3539522304619308e-02 1.2629832167205750e-02 1.4800261427274066e-04  -3.3234013324135003e-02 -5.2211807076471474e-02 -4.4891341316107197e-02 -5.2211807076471474e-02 5.7936899544237259e-02 -1.6064885726952850e-03 -4.4891341316107197e-02 -1.6064885726952856e-03 -1.1353588811633801e-02  -1.2774688566019118e-02 -6.0429812148579017e-02 -5.5464425110849022e-02 -6.0429812148579010e-02 1.3210583738920787e-02 1.5076489947627798e-02 -5.5464425110849022e-02 1.5076489947627798e-02 1.1639679249502377e-02  3.6002172973901528e-02 -1.8896933531370660e-02 -6.1729810584486483e-02 -1.8896933531370671e-02 -5.4853883720583994e-02 -1.1237022164808188e-03 -6.1729810584486469e-02 -1.1237022164808195e-03 2.5088345822328703e-02  8.8767185176542113e-02 -2.3700506449989646e-02 -5.3622746477049614e-02 -2.3700506449989656e-02 -7.7508602888346476e-02 -3.3266288200921888e-02 -5.3622746477049635e-02 -3.3266288200921888e-02 8.6369820830763840e-03  1.4344275013404870e-01 -2.9520001907930433e-02 -5.4789337053553315e-02 -2.9520001907930433e-02 -1.3500479122801193e-01 -6.9252242676175538e-02 -5.4789337053553315e-02 -6.9252242676175538e-02 4.9504260869739837e-02  1.4125571697281544e-01 -1.8102726688176529e-02 -5.1210304775106082e-02 -1.8102726688176529e-02 -8.6753317758288331e-02 -1.1601381327665430e-01 -5.1210304775106082e-02 -1.1601381327665430e-01 8.6292954242018945e-03  1.1320374443130682e-01 -2.4845622977973736e-03 -2.7383197220164440e-02 -2.4845622977973728e-03 -5.9127015477555195e-02 -8.8499143627160132e-02 -2.7383197220164444e-02 -8.8499143627160132e-02 -2.1381066800602051e-02  9.8298244436454921e-02 5.4894290235964257e-03 -1.8094197778129734e-02 5.4894290235964248e-03 -7.7277477018109358e-02 -5.5459703357166192e-02 -1.8094197778129734e-02 -5.5459703357166192e-02 -2.9784090123849383e-04  8.1092020198183887e-02 -1.6512145762561867e-02 -3.9067932969799150e-02 -1.6512145762561863e-02 -1.0391641297519898e-01 -3.6601143028945210e-02 -3.9067932969799150e-02 -3.6601143028945210e-02 4.9027054486409850e-02  6.0902026317017133e-02 -2.2873437904488959e-02 -3.0276828948942028e-02 -2.2873437904488959e-02 -9.4421417828155024e-02 -1.8701925383591205e-02 -3.0276828948942021e-02 -1.8701925383591205e-02 5.1715479733178596e-02  3.9922120552030406e-02 -2.6063887158296304e-02 -6.0468885627371610e-03 -2.6063887158296304e-02 -6.2698809085130411e-02 1.8625934505214600e-02 -6.0468885627371610e-03 1.8625934505214600e-02 2.8871909419734946e-02  2.5672675001667665e-02 -5.5698723736018911e-02 4.8953020048567763e-03 -5.5698723736018911e-02 -4.6480614336976353e-02 7.5167359833193531e-02 4.8953020048567763e-03 7.5167359833193531e-02 4.1236972295443264e-02  3.1285237018710797e-02 -3.8462125732634647e-02 -2.1506613155645612e-02 -3.8462125732634647e-02 -7.2678328973822648e-02 1.0168502329140335e-01 -2.1506613155645612e-02 1.0168502329140335e-01 7.6398355365734694e-02  1.6138009777123877e-02 1.2788203345358148e-02 -2.8097773829405662e-02 1.2788203345358148e-02 -1.9659581143078756e-02 8.4207948658280504e-02 -2.8097773829405662e-02 8.4207948658280504e-02 1.2776275167640154e-02  1.8093848071873399e-02 5.6412775649872056e-03 -1.5633291212451904e-02 5.6412775649872142e-03 -1.7604980311118960e-02 7.9642807807702401e-02 -1.5633291212451900e-02 7.9642807807702401e-02 5.1285069203874057e-03  2.4641387290368830e-02 -7.2564638966777870e-03 2.5391977002550774e-03 -7.2564638966777905e-03 -2.4495200419830217e-02 7.6545636198854641e-02 2.5391977002550774e-03 7.6545636198854641e-02 5.0793707509792048e-03  2.8800983748715807e-02 -1.6802178597229229e-02 1.6945417535012209e-02 -1.6802178597229229e-02 -1.9250554573596500e-02 6.8681766019428575e-02 1.6945417535012209e-02 6.8681766019428575e-02 -3.1304563339663461e-03  2.2538170090238126e-02 -1.3183207596103844e-02 3.1954009058378925e-02 -1.3183207596103844e-02 -1.3906089687631526e-02 6.7452387032764488e-02 3.1954009058378925e-02 6.7452387032764488e-02 -3.7411494357895226e-03  3.9270856482182682e-02 -8.6289348810311625e-03 2.1482132707545502e-02 -8.6289348810311625e-03 1.2304569784663333e-03 5.1707700108875147e-02 2.1482132707545509e-02 5.1707700108875147e-02 -3.8532002284350643e-02  4.4302234335421062e-02 -1.7653580247185649e-02 3.2461823638483371e-02 -1.7653580247185649e-02 5.1451628072756795e-03 2.9638070315271020e-02 3.2461823638483378e-02 2.9638070315271020e-02 -4.5692926394525456e-02  1.5932771343197958e-02 -2.9545410618265395e-02 5.2307711218451437e-02 -2.9545410618265395e-02 1.6452613105275283e-02 3.2590452670653858e-02 5.2307711218451437e-02 3.2590452670653858e-02 -2.3881541503267552e-02  1.4964900136747615e-02 -3.2093333789983414e-02 4.7111699954570395e-02 -3.2093333789983421e-02 3.4412902185561312e-02 1.0765914550953928e-02 4.7111699954570395e-02 1.0765914550953928e-02 -4.2189731089413041e-02  4.7916657362401397e-03 -3.1712516288905590e-02 4.9661661219022817e-02 -3.1712516288905590e-02 4.7812528757021591e-02 -1.3496390718446588e-04 4.9661661219022817e-02 -1.3496390718446588e-04 -4.5092203104155522e-02  -1.1957033136642162e-02 -1.7479102610176132e-02 4.7116564727231289e-02 -1.7479102610176135e-02 5.3653458178386924e-02 -1.0233396315213273e-02 4.7116564727231289e-02 -1.0233396315213273e-02 -3.4709085645032056e-02  -1.7291625651472606e-02 3.4100587407551448e-03 5.0870642541976166e-02 3.4100587407551448e-03 4.1294950853332964e-02 -1.6653771085721192e-02 5.0870642541976166e-02 -1.6653771085721192e-02 -1.7005580823070257e-02  2.5188307582369820e-03 5.2431531668926242e-03 3.3345035544741788e-02 5.2431531668926242e-03 4.5270424231595413e-02 -2.2648032208187542e-02 3.3345035544741795e-02 -2.2648032208187542e-02 -4.3607775168964351e-02  1.1149171583860409e-02 -2.4201017414090892e-02 -1.0882422769707569e-02 -2.4201017414090892e-02 5.3515471327883361e-02 -3.9532001131287436e-02 -1.0882422769707569e-02 -3.9532001131287436e-02 -6.0386840593815917e-02  -1.1247721618124415e-02 2.0440221348612200e-02 2.4546391509818789e-02 2.0440221348612200e-02 3.4564008957003518e-02 -3.2156915190067692e-02 2.4546391509818789e-02 -3.2156915190067692e-02 -1.8324657494936218e-02  4.5692466506903562e-02 -2.4746992920470716e-02 3.4714967013074277e-02 -2.4746992920470709e-02 -6.0692094234089437e-02 1.7191341112704178e-02 3.4714967013074277e-02 1.7191341112704178e-02 2.5437781807339091e-02  5.3157827915273737e-02 -2.5106711321697575e-02 3.5409750939864253e-02 -2.5106711321697575e-02 -6.8768040316240883e-02 -3.3045765749460600e-04 3.5409750939864239e-02 -3.3045765749460600e-04 2.5601976844649606e-02  6.6240642914781461e-02 -5.1265098640426270e-02 4.1510205900977558e-02 -5.1265098640426263e-02 -9.1011906090376071e-02 -8.4271413653696260e-03 4.1510205900977558e-02 -8.4271413653696260e-03 4.7161005060352271e-02  8.9375902041468475e-02 -4.6902872223129777e-02 4.7746227673231480e-02 -4.6902872223129777e-02 -1.1748269113334329e-01 9.5967049410295487e-03 4.7746227673231507e-02 9.5967049410295470e-03 6.3487076330426079e-02  8.3929362766696228e-02 -4.2835180309359608e-02 4.4218896123596002e-02 -4.2835180309359601e-02 -1.1322876563321869e-01 1.8221610683013607e-02 4.4218896123595981e-02 1.8221610683013607e-02 6.2305545390647692e-02  7.4114730610570181e-02 -2.9092139256240185e-02 3.3139575558826587e-02 -2.9092139256240185e-02 -1.0933009102970292e-01 1.5413501581309625e-02 3.3139575558826587e-02 1.5413501581309625e-02 6.1137112349440616e-02  5.3342725113337999e-02 -2.6201775167790299e-02 2.2830609423698019e-02 -2.6201775167790296e-02 -9.5763723345967278e-02 5.5081505019602380e-03 2.2830609423698019e-02 5.5081505019602380e-03 6.0987913526735119e-02  3.4814005468421644e-02 -2.2224770106627517e-02 4.0910950237825164e-02 -2.2224770106627514e-02 -7.2551938590161902e-02 -8.9601135458581942e-03 4.0910950237825164e-02 -8.9601135458581942e-03 4.8543893057608124e-02  3.1738374531244430e-02 -3.1311194411388367e-03 5.3125693407992482e-02 -3.1311194411388363e-03 -1.5828810092023134e-02 1.1229396157190130e-03 5.3125693407992482e-02 1.1229396157190130e-03 -1.2500029790810687e-02  1.0209395454430609e-01 4.1700715521531359e-02 -2.9020696079535228e-02 4.1700715521531338e-02 -8.8924489339575821e-02 -4.3386481143811266e-02 -2.9020696079535217e-02 -4.3386481143811266e-02 1.0199580982417600e-02  8.2343115882801299e-02 1.0435236027441153e-01 -5.4377941493115171e-04 1.0435236027441153e-01 -5.7754943002120487e-02 -5.0561714958229025e-02 -5.4377941493115203e-04 -5.0561714958229025e-02 9.0454353736509497e-03  2.2482404580582434e-02 1.1116395182237311e-01 6.0389177180403073e-03 1.1116395182237312e-01 -1.6655641131091053e-02 -4.6790237799069580e-02 6.0389177180403073e-03 -4.6790237799069580e-02 2.0719681941295778e-02  -4.5299251131270903e-02 1.0380396128461411e-01 2.3463949029378952e-02 1.0380396128461411e-01 4.3490416371016520e-02 -4.1930931950525774e-02 2.3463949029378952e-02 -4.1930931950525774e-02 2.9285203607028142e-02  -7.5945416280602432e-02 6.0665740035910756e-02 2.5220679987081020e-02 6.0665740035910756e-02 5.7193928655072661e-02 -4.1319943902099199e-02 2.5220679987081020e-02 -4.1319943902099199e-02 3.9025116159969370e-02  -7.3598185902595675e-02 2.0360849300319412e-02 3.7457849696524027e-02 2.0360849300319405e-02 7.3120684197994029e-02 -2.6480194733026076e-02 3.7457849696524027e-02 -2.6480194733026083e-02 1.5300823190488737e-02  -5.5964551743335082e-02 -1.9404846939909084e-02 4.2836345328988328e-02 -1.9404846939909084e-02 5.7615260757319417e-02 -1.7364689048833194e-02 4.2836345328988328e-02 -1.7364689048833194e-02 8.1604680990830999e-03  -5.3382830228240030e-02 -2.6987549302509125e-02 2.5400117091278235e-02 -2.6987549302509125e-02 4.0579028246036132e-02 -1.8063998754044377e-02