<?xml version="1.0"?>
<VTKFile type="UnstructuredGrid"  version="0.1"  >
<UnstructuredGrid>
<Piece  NumberOfPoints="1268" NumberOfCells="4847">
<Points>
<DataArray  type="Float64"  NumberOfComponents="3"  format="ascii">1.994716987487452 0.01317707561264319 -1.202466945460223e-11  1.374072606111497 -0.08614134488653273 -5.388997575085332  -1.285941478930618 0.1916557790035214 -5.691288663606836  -1.59032616235459 -0.4515196446136259 1.626303258728257e-17  0.4950030257755884 2.521650519233041 -5.495391852657774  -0.4107718940653654 -2.429115409112172 -5.58531208084276  -0.9314707163843408 -3.006923447963563 4.87890977618477e-17  1.161824811771535 2.948440156756841 -3.391384395534658e-14  2.146749234505421 0.002696741478414759 -0.5615078450779066  2.330988047973839 -0.000873250973709995 -1.113141311680313  2.540713632977715 -0.1384292375506191 -1.637427654548237  2.645241452520652 -0.2872312815961211 -2.18637082393926  2.504842461151312 -0.2752146673621067 -2.746850782899552  2.287876352721185 -0.2088259978706829 -3.283011632728322  2.137771360922677 -0.2093380261300688 -3.844996501809416  1.970142554575494 -0.2193701374385486 -4.401638277082749  1.701580801829277 -0.1696632515169769 -4.915066532844666  1.398049690886424 0.4419377546899956 -5.387643705321969  1.183972204621215 0.9208338616597355 -5.413149504812257  0.7621482426349403 1.234356207118232 -5.461782499987256  0.2539805730796886 1.370727420898931 -5.519751404145364  -0.2689415860383004 1.319053689498898 -5.578906487138381  -0.7357170559581984 1.076180709179107 -5.631191713357971  -1.086003096318238 0.6812820615514149 -5.669884670156524  -1.65706961757681 -0.5275128747266272 -0.6240725009925172  -1.829082870387909 -0.8347372240299333 -1.153553189134448  -2.030635262011336 -1.097965926806997 -1.693320688638939  -2.148557703924963 -0.9683820133813712 -2.295450526931833  -2.119047321408695 -0.7521727279271558 -2.890676896601294  -1.972500555455803 -0.7106310836492745 -3.509380855831461  -1.885028119342598 -0.4902108162504233 -4.093718100793141  -1.832050776792238 -0.1313823297003599 -4.617858136599065  -1.636180550340053 0.1151199882480144 -5.165527944859976  -1.540434086810702 0.1014447694855235 -7.644826989049428e-17  -1.339902801239663 0.6191128040412099 2.218327606354497e-17  -0.9949589579071262 1.053322092476122 2.12059320661159e-17  -0.5243975458638882 1.346285776146202 7.754217898549941e-16  0.01399251627036286 1.481823287560149 3.252316763596149e-17  0.5696211504784076 1.47677978548424 -7.207855520904863e-17  1.105448032340458 1.331487337928338 1.951563910473908e-16  1.561367740818086 1.018090979386763 -2.179459114756194e-16  1.860006992193919 0.551530302300456 1.369433074745588e-16  -0.152869286718376 2.506583809965366 -5.568804938302105  -0.7781210310064858 2.335338381675429 -5.639249366957451  -1.340550096787874 2.011723800088065 -5.702178028336585  -1.803922993566052 1.555830170950866 -5.753534898075912  -2.144678763029901 1.000979069722826 -5.790734833138769  -2.346903237737564 0.3811866585909049 -5.812061421922149  -2.406990243842066 -0.2684488461825228 -5.817196438260218  -2.318433628103212 -0.9144163570965761 -5.805488779558074  -2.059391262210163 -1.511004864267824 -5.774580158166454  -1.615755841275718 -1.983465489741105 -5.72306417450185  -1.043145925381342 -2.287058241276404 -5.657361969815248  -0.6986882361605687 -2.420627649803484 -5.024556445072709  -0.8272574030199392 -2.685291244074475 -4.476216325063944  -0.8113210073272845 -3.118860027310894 -4.01596683617901  -0.7618552434953355 -3.481598098596065 -3.504026669625047  -0.7509882165597778 -3.609083979854663 -2.886473298216772  -0.7986167670519319 -3.732483084086931 -2.268445488219849  -0.8276969497603353 -3.810997815301134 -1.64593496945388  -0.7425506523451623 -3.557242155569485 -1.078322423839125  -0.7147449622328144 -3.21189056194362 -0.5511080601316157  -1.482234509376526 -2.778582553401298 -5.854479658363816e-16  -1.970737176894139 -2.437284655419533 2.764697292186607e-16  -2.362818572203899 -1.988727212877528 2.439101268600111e-16  -2.642390785384022 -1.462244173776716 5.051059276813266e-16  -2.812149102113852 -0.89052423419162 2.276851973687203e-16  -2.877946727920729 -0.2976446157883296 -1.219909928720168e-16  -2.842947107925845 0.2978601752284433 4.065446096494693e-17  -2.70313036896374 0.8776122116387211 -5.041496169361013e-16  -2.452324348076021 1.418519584933707 4.379274460317988e-16  -2.098265626135573 1.898294456130726 1.951060033519619e-16  -1.658391347368763 2.301023318502569 -1.789574489620802e-16  -1.154148079923361 2.619757341302747 -2.081203863085907e-15  -0.6042202207747882 2.851073703499478 -3.577841418755692e-16  -0.02416138323675775 2.990516581461941 4.065982498622179e-16  0.5710641261211448 3.028216945076794 -1.46882551317968e-16  0.6414151130412097 2.696325287154043 -4.983333021490838  0.771852374565919 2.778456367279237 -4.445188759107248  0.8805845204306011 2.73078881179073 -3.897720120696569  0.9481597620953167 2.69798349057175 -3.343104559074628  0.9815370707090804 2.778214865778854 -2.789250505759619  1.013475345489448 2.861817704396183 -2.235671116027784  1.055849759321274 2.898356228459238 -1.677594140621302  1.093646323460014 2.92793989028903 -1.118725590781912  1.124098871622056 2.957526991478201 -0.5594169689370629  0.2477015793419729 -2.415655802610486 -5.510682951113449  0.8844491790088972 -2.245867158009595 -5.438931443942415  1.464891069119211 -1.932330028996181 -5.373934600293736  1.955087092649627 -1.489613175355717 -5.319502697776375  2.318355026965356 -0.937054784961175 -5.279744576064058  2.524994411863564 -0.307899182343253 -5.257941630215678  2.574632820450045 0.3531084349228537 -5.254020561031156  2.465743861849647 1.006614152640354 -5.268052816559671  2.183897076015212 1.604484044160622 -5.301550147358176  1.722560240631265 2.07491696755195 -5.35506775502591  1.13806318635062 2.378906583716481 -5.422118662603529  1.742182153284979 2.73179858498085 5.854691697147836e-16  2.262480931380501 2.395264875892136 -2.601681534737615e-16  2.698000706832733 1.954727370266727 -3.903113804560263e-16  3.021530388777258 1.426473918441798 1.707421408502106e-16  3.223363606607101 0.8405687193648443 -2.844806418042028e-16  3.305434793487241 0.2261994274297442 -4.472186606099012e-16  3.269241566985055 -0.3926051469820059 3.171555149681837e-16  3.113478077610213 -0.9924495549400153 3.510830505762065e-16  2.840400132149515 -1.548806515270482 -1.707368614952523e-16  2.466120284856568 -2.042983582774378 9.732831365154574e-17  2.008125599488538 -2.460814027017948 -3.577575055983979e-16  1.482521285196868 -2.789563899556613 -4.886146623064541e-17  0.9057866143556688 -3.01678997208197 -2.439392613813594e-16  0.2964958724913082 -3.130681163554852 3.414395345104792e-16  -0.32338307292875 -3.126978161260848 2.926910878106614e-16  -1.29067345658392 -0.3506098753383553 -5.690421630247788  -1.068897680254163 -0.8451623229646739 -5.663999894259847  -0.6782440885714781 -1.219621806060448 -5.6187489875115  -0.168757542531344 -1.390394566692369 -5.560546895724229  0.3611301401510615 -1.294122251639114 -5.500717901478111  0.8191548613516448 -1.005201308695582 -5.449538098373106  1.16817203978903 -0.5892762115769014 -5.411042670828763  1.960898302630318 -0.551652302616722 -8.131516293641286e-17  1.751009740180289 -1.077278642631261 7.445724005953314e-16  1.394016468000002 -1.516729095803803 1.136104663605282e-15  0.9227767039454898 -1.830301465573364 3.434443593283319e-16  0.3780412068884804 -1.984007749105097 8.617772484356591e-16  -0.1885780664025548 -1.977994130030172 2.357202029695971e-16  -0.7327557451871473 -1.821291124380143 1.942410916395698e-17  -1.191068596016128 -1.491774666596192 2.975009434367945e-16  -1.480405544894888 -1.006855825633415 6.954512630084263e-16  -1.812414118534285 0.2561131097252937 -2.664867827914479  2.421751940242729 0.6298287624476981 -1.933377861698098  0.7556418177061754 1.42269463362527 -4.617654324361507  0.003134751711410342 1.574821943356493 -0.9318675177876981  1.015098001669947 1.51699057942374 -0.9441494884276413  0.6193243625380082 1.764115149411371 -1.862230514405671  -0.4757031201037318 1.549728101933577 -1.958273018773558  0.1126459993007786 1.698838152590054 -2.957602797129454  -0.3405660022430232 1.569615851499001 -4.678135257405353  1.818199099779932 0.7365610114574719 -3.763003518505052  -0.9541815370276669 1.23451227632913 -2.875526912859068  -1.269464226480212 1.016489154450913 -4.672047638709048  1.301562892980348 1.557566760682666 -2.802482532053872  -0.7813756340336595 1.414221906310649 -3.725761628685261  -1.58370798409762 0.5643609111372817 -3.581008460136619  -0.988817348255397 1.158392548936659 -1.014254585170146  -1.607700527190565 0.2800106654898483 -1.030081240453645  -1.388203055800784 0.7951310659851955 -1.943712885648593  0.8261955720421881 1.570157055202129 -3.620947225245673  1.681455131778566 1.410849015379531 -1.876189895849114  1.878739160554727 0.943024132521903 -0.9866418074548234  2.103426639579445 1.000735947836943 -2.593434794762663  1.62623803052506 0.6468498306152269 -4.727220189271843  -1.882943490361709 -0.1546739965127431 -1.761716647663214  0.05868355051519467 1.656538949473053 -3.863342338366238  2.465845305360337 0.2632819454094029 -2.663569745038379  1.994842599423799 0.5019775153043848 -0.4779055074204815  2.1671824130763 0.4980244878585698 -1.027636182799239  1.710213566460811 0.9718796190568162 -0.4957578884333736  1.845584590132108 0.2253887364997403 -4.583879812097906  1.579035044615276 0.2924902970866011 -5.101748935835201  1.409777182251665 0.7868327264427526 -5.07202467441607  -1.039178737375989 1.089168173550246 -5.170746090958521  -1.377687418630729 0.6683636420802941 -5.233117919580046  -1.641402128985454 0.4875654733502939 -4.648722230221863  -1.765467255797776 -0.2695484060062747 -1.079683539430899  -1.617858736076732 -0.08318463488274264 -0.5123563299218489  -1.474019211051276 0.4496529111656123 -0.5150171376928306  2.417677350191343 0.3274903893149403 -1.506992657970159 
[...]
<PointData  Tensors="strain"> 
<DataArray  type="Float64"  Name="strain"  NumberOfComponents="9" format="ascii">-4.8620047552207904e-02 -1.0012915872865270e-02 -2.5963404849978977e-01 -1.0012915872865270e-02 9.7886559706658171e-03 -2.7794491362999035e-02 -2.5963404849978977e-01 -2.7794491362999035e-02 1.9273545479703097e-01  -1.7604962373780203e-01 4.4420812607861050e-02 1.3874202653593559e-01 4.4420812607861043e-02 3.4404039078997889e-01 -7.9177249645277753e-02 1.3874202653593559e-01 -7.9177249645277753e-02 1.6668455225749220e-02  -1.3928135659327864e-01 6.9534796740204935e-02 -1.6446269501076802e-01 6.9534796740204935e-02 3.2893869638547463e-01 8.7996683468547873e-02 -1.6446269501076805e-01 8.7996683468547873e-02 3.5471001104232000e-04  -6.6257649228836549e-02 -3.5839766226560474e-02 2.4118236519934028e-01 -3.5839766226560474e-02 3.0950408515434073e-03 -3.5219017304352132e-02 2.4118236519934028e-01 -3.5219017304352132e-02 2.1639443946095727e-01  8.8250196472347553e-02 -9.1798783465271809e-03 5.3264696947604898e-02 -9.1798783465271774e-03 -8.5348528519042732e-02 4.9354262860399352e-02 5.3264696947604898e-02 4.9354262860399352e-02 2.2736238708231903e-02  1.5886039206947133e-01 -6.4015993704777431e-03 -5.0540484687939632e-02 -6.4015993704777422e-03 -1.3857392597604570e-01 -3.4371947778474944e-02 -5.0540484687939632e-02 -3.4371947778474944e-02 2.6157788255293378e-02  3.8689842422645129e-03 1.6094427769022372e-02 -5.1314689088810386e-02 1.6094427769022372e-02 -1.8796830794215045e-02 1.6011570045311502e-01 -5.1314689088810386e-02 1.6011570045311502e-01 6.2066083525376459e-02  5.8173126735446522e-03 2.8323077902317920e-02 5.4921602275662659e-02 2.8323077902317920e-02 4.4951035162018052e-02 -6.9989405009533878e-02 5.4921602275662659e-02 -6.9989405009533878e-02 -3.5740891726918418e-02  -1.8238568061857821e-01 -4.0363110799803592e-02 -1.4347765052582928e-01 -4.0363110799803592e-02 1.7151524471477858e-01 -7.5654769479888764e-02 -1.4347765052582928e-01 -7.5654769479888792e-02 1.5484638022511044e-01  -2.0980484810567138e-01 -5.3203747071756159e-02 -1.1637988105225106e-01 -5.3203747071756159e-02 2.4349138834579603e-01 -6.1934356667369656e-02 -1.1637988105225106e-01 -6.1934356667369656e-02 1.2977006407810859e-01  -2.3998772569362922e-01 -9.7422135639842929e-03 -1.0118547961122433e-01 -9.7422135639842929e-03 2.6898504769086207e-01 -3.4783649004094974e-02 -1.0118547961122436e-01 -3.4783649004094981e-02 1.4880101322525524e-01  -2.6235894760055684e-01 2.5572268169006467e-02 1.9107859880523753e-03 2.5572268169006467e-02 2.5853203501726990e-01 -5.4396764508168743e-02 1.9107859880523777e-03 -5.4396764508168743e-02 1.8956574533769735e-01  -2.2505380063843924e-01 -4.3663003178537590e-03 1.1900141458698281e-01 -4.3663003178537590e-03 3.1336390540989711e-01 -7.0100569717939307e-02 1.1900141458698281e-01 -7.0100569717939307e-02 1.0374867365410224e-01  -2.1551680132645498e-01 -4.4689777642417272e-02 1.0543189807212361e-01 -4.4689777642417272e-02 3.5936415539210292e-01 -2.5058645304753133e-02 1.0543189807212361e-01 -2.5058645304753133e-02 4.4480207808497298e-02  -2.2842542789077133e-01 -1.6034277527909105e-02 9.2759742592304892e-02 -1.6034277527909105e-02 3.7030694218736726e-01 -1.5616116717346798e-02 9.2759742592304892e-02 -1.5616116717346798e-02 4.9452778569536615e-02  -2.0932601555788877e-01 5.8333709651593492e-03 1.2180832544946552e-01 5.8333709651593535e-03 3.4934970456084169e-01 -4.1352310783291067e-02 1.2180832544946547e-01 -4.1352310783291067e-02 4.6258795515265315e-02  -1.6717845252458921e-01 3.1489329581585360e-02 1.5934977174557263e-01 3.1489329581585360e-02 3.4039876669502817e-01 -5.4920731245287728e-02 1.5934977174557263e-01 -5.4920731245287728e-02 1.8129696835276151e-02  -1.4624955583216515e-01 -1.2780042025890995e-01 1.7020230937558994e-01 -1.2780042025890995e-01 2.7831596016471238e-01 -1.5710194914294654e-02 1.7020230937558997e-01 -1.5710194914294654e-02 5.0739122951052214e-02  1.0348371742841729e-02 -2.5689252811582636e-01 1.3569051069191515e-01 -2.5689252811582636e-01 1.0625775031043477e-01 5.2559573538910297e-02 1.3569051069191515e-01 5.2559573538910297e-02 6.7227618170436834e-02  1.9736635839592639e-01 -2.0178605181294051e-01 1.0365898669454704e-01 -2.0178605181294051e-01 -1.0805283178091410e-01 1.0564979202986370e-01 1.0365898669454705e-01 1.0564979202986370e-01 8.9477424648068529e-02  2.7595531712453786e-01 -4.6538843588524684e-02 6.4600816688598003e-02 -4.6538843588524684e-02 -1.8845538455905547e-01 1.5571829413656391e-01 6.4600816688598003e-02 1.5571829413656391e-01 9.4222963505188745e-02  2.4769032925805215e-01 1.1285288525049796e-01 -6.6642081115517041e-03 1.1285288525049798e-01 -1.4377657004064842e-01 1.8787716376776475e-01 -6.6642081115517032e-03 1.8787716376776473e-01 8.2587128823624872e-02  1.1505579807825093e-01 2.1621093357712290e-01 -6.6052399162128739e-02 2.1621093357712290e-01 9.6712789478756583e-03 1.7811015349585274e-01 -6.6052399162128739e-02 1.7811015349585274e-01 5.5859989837665790e-02  -4.0685436380855734e-02 1.9760760748669992e-01 -1.2141214375535801e-01 1.9760760748669992e-01 1.8960807713368918e-01 1.4763237416419797e-01 -1.2141214375535801e-01 1.4763237416419797e-01 3.4985432425023590e-02  -1.9465147861041940e-01 -1.2632221989288575e-02 1.3011589853267008e-01 -1.2632221989288575e-02 1.4835157845590979e-01 1.3587715163437757e-02 1.3011589853267008e-01 1.3587715163437757e-02 1.7384283693618674e-01  -1.9910992617127979e-01 -3.3412621494355199e-02 1.1818301560035346e-01 -3.3412621494355206e-02 2.3441906855287678e-01 8.7169188742794237e-03 1.1818301560035346e-01 8.7169188742794255e-03 1.0768598308414447e-01  -2.2672640819020812e-01 -3.6530845501219524e-02 1.0332076101342713e-01 -3.6530845501219524e-02 2.4519434061217288e-01 2.9190078212718098e-02 1.0332076101342713e-01 2.9190078212718098e-02 1.4713856484917612e-01  -2.6147285948872834e-01 -1.8495787712411626e-02 2.0895715958557316e-02 -1.8495787712411626e-02 2.7401241224365663e-01 5.2848768150632039e-02 2.0895715958557284e-02 5.2848768150632039e-02 1.6830978632920490e-01  -2.5711956513156425e-01 1.9467563660348895e-03 -4.5587461579233164e-02 1.9467563660349064e-03 3.0461699729704983e-01 8.7571983614910240e-02 -4.5587461579233157e-02 8.7571983614910240e-02 1.4066858178586858e-01  -2.3837062594457339e-01 -2.4004595127909638e-02 -6.2815180074060048e-02 -2.4004595127909641e-02 3.3971188633649591e-01 1.0194490136615701e-01 -6.2815180074060048e-02 1.0194490136615698e-01 8.5129384909258282e-02  -2.4549096715460894e-01 -1.4872006907853508e-02 -4.8330459921467478e-02 -1.4872006907853508e-02 3.3705888880507207e-01 1.1447512140369517e-01 -4.8330459921467478e-02 1.1447512140369516e-01 9.6428738330850805e-02  -2.4930337533828958e-01 4.0543544653640053e-02 -6.4267050662083533e-02 4.0543544653640060e-02 3.1815695779410641e-01 9.9816703043969363e-02 -6.4267050662083533e-02 9.9816703043969390e-02 1.2424639297138024e-01  -2.0111675812532714e-01 5.8506383324761442e-02 -1.3227214335965395e-01 5.8506383324761428e-02 3.1075849616036866e-01 1.0421809163868899e-01 -1.3227214335965395e-01 1.0421809163868899e-01 8.5477054933197238e-02  -9.4652199351600658e-02 2.5820653196833486e-04 2.3167729567152867e-01 2.5820653196833486e-04 1.3715300462912269e-02 -6.3511811589406358e-02 2.3167729567152867e-01 -6.3511811589406358e-02 2.3883231066884050e-01  -7.9727877706579894e-02 3.1613909873228055e-02 1.9632224844743498e-01 3.1613909873228055e-02 -3.5740935287697406e-03 -1.3035372782372884e-01 1.9632224844743498e-01 -1.3035372782372884e-01 2.3908658310169073e-01  -5.9864952995730414e-02 6.0958940600726076e-02 1.6239690209184501e-01 6.0958940600726076e-02 -3.2358575881639477e-02 -1.6817067352827783e-01 1.6239690209184501e-01 -1.6817067352827783e-01 2.5266547415990392e-01  -1.8516748505324265e-02 4.6197848930504395e-02 9.4411074025140179e-02 4.6197848930504395e-02 -6.8399574385099152e-02 -2.0969248524569845e-01 9.4411074025140165e-02 -2.0969248524569845e-01 2.5147624680498831e-01  3.0656011930389260e-04 3.2351602328712169e-02 5.6451548019652048e-02 3.2351602328712169e-02 -9.4554984159742228e-02 -2.2761661779370598e-01 5.6451548019652048e-02 -2.2761661779370598e-01 2.6476850552093628e-01  4.3100444983889038e-03 2.7968033819483740e-03 -2.9397799404615933e-02 2.7968033819483740e-03 -9.8632142722939437e-02 -2.3677482223913288e-01 -2.9397799404615926e-02 -2.3677482223913288e-01 2.7172013979570525e-01  1.1362836567988272e-02 -2.0057858388754003e-02 -8.2620129147701282e-02 -2.0057858388754003e-02 -8.5590405077480614e-02 -2.3022377584885650e-01 -8.2620129147701282e-02 -2.3022377584885650e-01 2.3451739783430192e-01  -2.0519203328525654e-02 -5.1792337889193754e-02 -1.8887291603331813e-01 -5.1792337889193754e-02 -5.1307809865876131e-02 -1.6502125641099821e-01 -1.8887291603331813e-01 -1.6502125641099821e-01 2.5151991553231845e-01  -7.1552209826605068e-02 -4.3028156377856015e-02 -2.3984156394780545e-01 -4.3028156377856015e-02 -2.4111369692168056e-02 -8.9770948657575941e-02 -2.3984156394780545e-01 -8.9770948657575941e-02 2.8062512653448013e-01  7.4994067767886627e-02 3.3809491280765179e-02 3.1916621231059344e-02 3.3809491280765193e-02 -7.6662473969162828e-02 7.0178485098510227e-02 3.1916621231059344e-02 7.0178485098510227e-02 2.7934762089445921e-02  6.4525358855854309e-02 6.9453753440929258e-02 1.7236265992546657e-02 6.9453753440929245e-02 -6.0466390918326153e-02 7.5019693071628715e-02 1.7236265992546657e-02 7.5019693071628715e-02 2.5398407777319113e-02  1.1419947146339258e-02 7.9782121775897857e-02 -8.0375852719726804e-03 7.9782121775897857e-02 -1.9199662992578390e-02 7.9343805508991214e-02 -8.0375852719726804e-03 7.9343805508991214e-02 3.3162289082723444e-02  -2.4122014350783497e-02 8.7553085049205281e-02 -4.2317215953617919e-02 8.7553085049205281e-02 4.9224259035167431e-02 7.1264904106626420e-02 -4.2317215953617919e-02 7.1264904106626420e-02 6.1824378673338400e-03  -6.0288561420479690e-02 5.6614330374012672e-02 -5.8979391750604016e-02 5.6614330374012672e-02 9.0941708626840229e-02 6.4122347835836105e-02 -5.8979391750604029e-02 6.4122347835836119e-02 1.6893178401968223e-03  -8.2103748648776190e-02 1.8531633349710190e-02 -7.0372410730611318e-02 1.8531633349710166e-02 9.8525546137735232e-02 4.5394126416740246e-02 -7.0372410730611318e-02 4.5394126416740226e-02 1.5342969219828769e-02  -7.4146400519872188e-02 -2.2309284685682763e-02 -8.7209062784890767e-02 -2.2309284685682749e-02 9.6962479311396427e-02 2.8628720919605648e-02 -8.7209062784890767e-02 2.8628720919605648e-02 1.2426431917673890e-02  -4.2856566069925148e-02 -7.3537962313291572e-02 -7.4919900781239571e-02 -7.3537962313291572e-02 7.4303471068384946e-02 1.5494933022134757e-03 -7.4919900781239571e-02 1.5494933022134757e-03 -3.0850984901549835e-03  5.6685510982108665e-03 -9.5046448234661102e-02 -8.1631419243777328e-02 -9.5046448234661074e-02 6.0148944169931802e-03 9.4562986671893542e-03 -8.1631419243777328e-02 9.4562986671893577e-03 1.6436548947014108e-02  4.6815776766381698e-02 -3.9718574337542424e-02 -7.6743971554408902e-02 -3.9718574337542431e-02 -7.0890418428704235e-02 -2.0720313446747244e-02 -7.6743971554408888e-02 -2.0720313446747241e-02 3.9960717717148431e-02  1.1817308553806255e-01 -5.7620823146950259e-02 -6.0914642627065120e-02 -5.7620823146950259e-02 -1.0432816953216793e-01 -4.1170600249304037e-02 -6.0914642627065113e-02 -4.1170600249304037e-02 2.3608750727128442e-02  1.9273689570386643e-01 -3.9724569766263727e-02 -7.0045159633491380e-02 -3.9724569766263727e-02 -1.6557664249389467e-01 -9.3499973272640508e-02 -7.0045159633491366e-02 -9.3499973272640508e-02 7.2018451131859895e-02  1.8889488635055998e-01 -2.7118428119562339e-02 -6.2194936431410247e-02 -2.7118428119562339e-02 -1.0197309799392858e-01 -1.4811621279309495e-01 -6.2194936431410247e-02 -1.4811621279309495e-01 1.8017934424260303e-02  1.5783317700741162e-01 -6.0746690272497940e-03 -3.5639759161862163e-02 -6.0746690272497897e-03 -7.6087333404913082e-02 -1.2413453547523674e-01 -3.5639759161862163e-02 -1.2413453547523674e-01 -1.7953577366742222e-02  1.3522951584577075e-01 2.0107135166111661e-03 -2.7641115018914073e-02 2.0107135166111661e-03 -1.0801910707255290e-01 -8.3285925773597905e-02 -2.7641115018914073e-02 -8.3285925773597905e-02 1.6218697332848808e-02  1.1376631601443919e-01 -2.8143330822855726e-02 -4.8007890125591479e-02 -2.8143330822855726e-02 -1.4292561396268397e-01 -5.2461430687926462e-02 -4.8007890125591479e-02 -5.2461430687926462e-02 8.2102275939502603e-02  8.8589875209395846e-02 -3.0311336525545414e-02 -3.8544659625186752e-02 -3.0311336525545421e-02 -1.3844760798146372e-01 -2.6827579910203802e-02 -3.8544659625186752e-02 -2.6827579910203802e-02 9.1370446001399278e-02  5.8573741917500748e-02 -4.4540165085735758e-02 -7.0465056141083230e-03 -4.4540165085735738e-02 -9.6022837227624627e-02 3.5383343512297105e-02 -7.0465056141083213e-03 3.5383343512297105e-02 5.6802552165495970e-02  4.3907272153246274e-02 -7.1678119271713872e-02 -4.0803472520937149e-04 -7.1678119271713872e-02 -7.6622645383235488e-02 1.0974606359537706e-01 -4.0803472520937177e-04 1.0974606359537706e-01 7.9480976018628233e-02  4.3602963095825016e-02 -5.6434193242020515e-02 -1.5454190929745593e-02 -5.6434193242020522e-02 -9.6211531692446992e-02 1.4272699470259717e-01 -1.5454190929745589e-02 1.4272699470259717e-01 1.2343401996208576e-01  1.1759988289075830e-02 1.1475652537020811e-02 -2.1394640186123873e-02 1.1475652537020811e-02 -2.3329612987884194e-02 1.5162287123364893e-01 -2.1394640186123873e-02 1.5162287123364893e-01 4.5950547106555287e-02  1.6782469344742184e-02 3.8361203377923537e-03 7.3485460707580126e-04 3.8361203377923533e-03 -2.4953694849110534e-02 1.3937531962818286e-01 7.3485460707580126e-04 1.3937531962818286e-01 3.3215105127864311e-02  2.1955116647975514e-02 -9.1040181262902233e-03 3.0662977043030667e-02 -9.1040181262902215e-03 -2.9245545324843289e-02 1.3466286829211180e-01 3.0662977043030667e-02 1.3466286829211180e-01 3.2997290703255751e-02  2.7786656628844716e-02 -2.1598313973944745e-02 4.9446750398657140e-02 -2.1598313973944752e-02 -2.1777716353956214e-02 1.2002407171335833e-01 4.9446750398657140e-02 1.2002407171335833e-01 1.9360706393873037e-02  2.1318306385102029e-02 -1.8751292099231980e-02 7.1982452686573759e-02 -1.8751292099231980e-02 -1.7619107172776968e-02 1.0732497312599869e-01 7.1982452686573759e-02 1.0732497312599869e-01 1.7240220327385796e-02  4.6804165401422508e-02 -1.2633453944010805e-02 6.2221559690663855e-02 -1.2633453944010805e-02 4.8761665946626633e-04 8.0198602761018242e-02 6.2221559690663869e-02 8.0198602761018242e-02 -3.7253329331361204e-02  5.1043100249169610e-02 -1.9171596952382474e-02 7.5762669688274137e-02 -1.9171596952382474e-02 5.6701303622531509e-03 4.7026313921870143e-02 7.5762669688274151e-02 4.7026313921870143e-02 -4.6301925456020965e-02  1.9606784521939803e-02 -3.7685086125050227e-02 1.0327993283528902e-01 -3.7685086125050227e-02 2.0433142618125837e-02 3.9059009434867120e-02 1.0327993283528902e-01 3.9059009434867120e-02 -1.7570143931912009e-02  2.5209353561039968e-02 -4.0071189362789937e-02 9.3941943309400464e-02 -4.0071189362789937e-02 4.1774730214628124e-02 7.1769409702324019e-03 9.3941943309400464e-02 7.1769409702324054e-03 -4.9575280545115889e-02  1.1089257797900508e-02 -4.0395292358706252e-02 9.6501631981416397e-02 -4.0395292358706252e-02 5.9149655696735311e-02 -7.6088432169823059e-03 9.6501631981416397e-02 -7.6088432169823077e-03 -5.1516634217578003e-02  -1.5282638153688466e-02 -2.3488323068146053e-02 8.9042587662782419e-02 -2.3488323068146060e-02 6.9160263843634204e-02 -3.3594780240328366e-02 8.9042587662782391e-02 -3.3594780240328366e-02 -3.5620087755855262e-02  -2.4047695909842928e-02 5.9742124264529706e-03 8.7960063661622498e-02 5.9742124264529706e-03 5.7408981814981552e-02 -4.8401021751177775e-02 8.7960063661622498e-02 -4.8401021751177775e-02 -1.2126937088456854e-02  4.3143314969677762e-03 8.8223368745421072e-03 5.6251395186730210e-02 8.8223368745421072e-03 6.5794997665313854e-02 -5.5031549807238456e-02 5.6251395186730203e-02 -5.5031549807238456e-02 -5.6877629402383688e-02  1.2047824881911175e-02 -3.2816331049459711e-02 -1.1586521952114527e-02 -3.2816331049459711e-02 7.9214809294845964e-02 -7.6939091893263631e-02 -1.1586521952114529e-02 -7.6939091893263617e-02 -8.0763575335100896e-02  -1.6413248424573597e-02 2.6707717543626702e-02 4.1855099558951635e-02 2.6707717543626702e-02 4.7019165969414731e-02 -7.1144815202714207e-02 4.1855099558951635e-02 -7.1144815202714207e-02 -1.5084412529698311e-02  7.8131099369832702e-02 -3.8105646737987706e-02 4.2789325377781469e-02 -3.8105646737987706e-02 -9.6691866865830714e-02 3.3163873324131579e-02 4.2789325377781476e-02 3.3163873324131579e-02 4.5363932782151443e-02  7.9059050416971491e-02 -4.0970403403197318e-02 5.0864417960335528e-02 -4.0970403403197318e-02 -1.0648905376450764e-01 2.4047272580784576e-03 5.0864417960335535e-02 2.4047272580784529e-03 5.3449073775665427e-02  9.7524335823904088e-02 -6.6263520878306323e-02 5.3724004829006619e-02 -6.6263520878306323e-02 -1.3077157996804223e-01 -6.4223969083983239e-03 5.3724004829006619e-02 -6.4223969083983239e-03 7.9449902826461222e-02  1.2831261622243684e-01 -6.5892258180599461e-02 5.9129470263214190e-02 -6.5892258180599461e-02 -1.5568558889883660e-01 1.4930721789130836e-02 5.9129470263214183e-02 1.4930721789130836e-02 9.5446499102501622e-02  1.1736221645818518e-01 -5.6665036759528636e-02 5.7011832615301544e-02 -5.6665036759528616e-02 -1.5103980624505983e-01 2.7437872281959184e-02 5.7011832615301544e-02 2.7437872281959184e-02 9.6695537068945292e-02  1.0681193324982670e-01 -4.3076560161819460e-02 4.4148151813998671e-02 -4.3076560161819447e-02 -1.5136891865997937e-01 2.2427300064312192e-02 4.4148151813998671e-02 2.2427300064312192e-02 9.9433464834150373e-02  7.9613370598184144e-02 -3.5756887014050553e-02 3.3822001538456346e-02 -3.5756887014050553e-02 -1.4264715391486241e-01 9.9930720317715476e-03 3.3822001538456346e-02 9.9930720317715441e-03 1.0840736753345528e-01  5.3293738419127747e-02 -3.3403175609847617e-02 6.1479843419400403e-02 -3.3403175609847617e-02 -1.2454451254276828e-01 -9.5159707288458260e-03 6.1479843419400403e-02 -9.5159707288458260e-03 1.0630684823228016e-01  4.2395091765279815e-02 -1.7181185463725521e-02 6.8311285565660768e-02 -1.7181185463725521e-02 -4.2530459031471263e-02 -5.4430807329348668e-03 6.8311285565660768e-02 -5.4430807329348668e-03 4.6302387678623103e-03  1.4272279224792844e-01 5.0317737386251338e-02 -3.5420339487727229e-02 5.0317737386251331e-02 -1.2759519840658307e-01 -6.6414742404948685e-02 -3.5420339487727222e-02 -6.6414742404948685e-02 3.3477587657541080e-02  1.1787429316004466e-01 1.2685465552576475e-01 -1.1398241806415103e-02 1.2685465552576475e-01 -9.2006102497373995e-02 -7.2405096380251194e-02 -1.1398241806415127e-02 -7.2405096380251194e-02 3.3602910678707187e-02  3.4286279292741806e-02 1.4839497785804037e-01 1.1733164509591944e-02 1.4839497785804037e-01 -3.1804223976675566e-02 -7.0795433309786451e-02 1.1733164509591909e-02 -7.0795433309786451e-02 5.1968084836710886e-02  -5.1870061038458759e-02 1.4478417304339394e-01 2.8241388319167868e-02 1.4478417304339394e-01 5.3043797863932068e-02 -6.6480587503571761e-02 2.8241388319167868e-02 -6.6480587503571761e-02 5.4725573346367268e-02  -1.0386759030355795e-01 8.8029730993064562e-02 4.3956745579378745e-02 8.8029730993064562e-02 8.1170965881296714e-02 -6.4571815308521782e-02 4.3956745579378745e-02 -6.4571815308521782e-02 6.9011147879823792e-02  -1.1349400583762723e-01 3.1778690129241977e-02 6.4254705338768842e-02 3.1778690129241977e-02 1.0931398973671376e-01 -4.7236675004863497e-02 6.4254705338768842e-02 -4.7236675004863497e-02 4.5770562197331839e-02  -8.9825033793937872e-02 -3.2907688745555962e-02 7.7072411935133769e-02 -3.2907688745555969e-02 9.0452473892778940e-02 -2.8144492770841550e-02 7.7072411935133769e-02 -2.8144492770841557e-02 3.0554851975444025e-02  -8.5900090679377233e-02 -4.9243261226585060e-02 6.1831863236557802e-02 -4.9243261226585060e-02 6.2870591241589252e-02 -2.4550835520552067e-02 6.1831863236