<?xml version="1.0"?>
<VTKFile type="UnstructuredGrid"  version="0.1"  >
<UnstructuredGrid>
<Piece  NumberOfPoints="1268" NumberOfCells="4847">
<Points>
<DataArray  type="Float64"  NumberOfComponents="3"  format="ascii">1.994716987487452 0.01317707561264319 -1.202466945460223e-11  1.374072606111497 -0.08614134488653273 -5.388997575085332  -1.285941478930618 0.1916557790035214 -5.691288663606836  -1.59032616235459 -0.4515196446136259 1.626303258728257e-17  0.4950030257755884 2.521650519233041 -5.495391852657774  -0.4107718940653654 -2.429115409112172 -5.58531208084276  -0.9314707163843408 -3.006923447963563 4.87890977618477e-17  1.161824811771535 2.948440156756841 -3.391384395534658e-14  2.146749234505421 0.002696741478414759 -0.5615078450779066  2.330988047973839 -0.000873250973709995 -1.113141311680313  2.540713632977715 -0.1384292375506191 -1.637427654548237  2.645241452520652 -0.2872312815961211 -2.18637082393926  2.504842461151312 -0.2752146673621067 -2.746850782899552  2.287876352721185 -0.2088259978706829 -3.283011632728322  2.137771360922677 -0.2093380261300688 -3.844996501809416  1.970142554575494 -0.2193701374385486 -4.401638277082749  1.701580801829277 -0.1696632515169769 -4.915066532844666  1.398049690886424 0.4419377546899956 -5.387643705321969  1.183972204621215 0.9208338616597355 -5.413149504812257  0.7621482426349403 1.234356207118232 -5.461782499987256  0.2539805730796886 1.370727420898931 -5.519751404145364  -0.2689415860383004 1.319053689498898 -5.578906487138381  -0.7357170559581984 1.076180709179107 -5.631191713357971  -1.086003096318238 0.6812820615514149 -5.669884670156524  -1.65706961757681 -0.5275128747266272 -0.6240725009925172  -1.829082870387909 -0.8347372240299333 -1.153553189134448  -2.030635262011336 -1.097965926806997 -1.693320688638939  -2.148557703924963 -0.9683820133813712 -2.295450526931833  -2.119047321408695 -0.7521727279271558 -2.890676896601294  -1.972500555455803 -0.7106310836492745 -3.509380855831461  -1.885028119342598 -0.4902108162504233 -4.093718100793141  -1.832050776792238 -0.1313823297003599 -4.617858136599065  -1.636180550340053 0.1151199882480144 -5.165527944859976  -1.540434086810702 0.1014447694855235 -7.644826989049428e-17  -1.339902801239663 0.6191128040412099 2.218327606354497e-17  -0.9949589579071262 1.053322092476122 2.12059320661159e-17  -0.5243975458638882 1.346285776146202 7.754217898549941e-16  0.01399251627036286 1.481823287560149 3.252316763596149e-17  0.5696211504784076 1.47677978548424 -7.207855520904863e-17  1.105448032340458 1.331487337928338 1.951563910473908e-16  1.561367740818086 1.018090979386763 -2.179459114756194e-16  1.860006992193919 0.551530302300456 1.369433074745588e-16  -0.152869286718376 2.506583809965366 -5.568804938302105  -0.7781210310064858 2.335338381675429 -5.639249366957451  -1.340550096787874 2.011723800088065 -5.702178028336585  -1.803922993566052 1.555830170950866 -5.753534898075912  -2.144678763029901 1.000979069722826 -5.790734833138769  -2.346903237737564 0.3811866585909049 -5.812061421922149  -2.406990243842066 -0.2684488461825228 -5.817196438260218  -2.318433628103212 -0.9144163570965761 -5.805488779558074  -2.059391262210163 -1.511004864267824 -5.774580158166454  -1.615755841275718 -1.983465489741105 -5.72306417450185  -1.043145925381342 -2.287058241276404 -5.657361969815248  -0.6986882361605687 -2.420627649803484 -5.024556445072709  -0.8272574030199392 -2.685291244074475 -4.476216325063944  -0.8113210073272845 -3.118860027310894 -4.01596683617901  -0.7618552434953355 -3.481598098596065 -3.504026669625047  -0.7509882165597778 -3.609083979854663 -2.886473298216772  -0.7986167670519319 -3.732483084086931 -2.268445488219849  -0.8276969497603353 -3.810997815301134 -1.64593496945388  -0.7425506523451623 -3.557242155569485 -1.078322423839125  -0.7147449622328144 -3.21189056194362 -0.5511080601316157  -1.482234509376526 -2.778582553401298 -5.854479658363816e-16  -1.970737176894139 -2.437284655419533 2.764697292186607e-16  -2.362818572203899 -1.988727212877528 2.439101268600111e-16  -2.642390785384022 -1.462244173776716 5.051059276813266e-16  -2.812149102113852 -0.89052423419162 2.276851973687203e-16  -2.877946727920729 -0.2976446157883296 -1.219909928720168e-16  -2.842947107925845 0.2978601752284433 4.065446096494693e-17  -2.70313036896374 0.8776122116387211 -5.041496169361013e-16  -2.452324348076021 1.418519584933707 4.379274460317988e-16  -2.098265626135573 1.898294456130726 1.951060033519619e-16  -1.658391347368763 2.301023318502569 -1.789574489620802e-16  -1.154148079923361 2.619757341302747 -2.081203863085907e-15  -0.6042202207747882 2.851073703499478 -3.577841418755692e-16  -0.02416138323675775 2.990516581461941 4.065982498622179e-16  0.5710641261211448 3.028216945076794 -1.46882551317968e-16  0.6414151130412097 2.696325287154043 -4.983333021490838  0.771852374565919 2.778456367279237 -4.445188759107248  0.8805845204306011 2.73078881179073 -3.897720120696569  0.9481597620953167 2.69798349057175 -3.343104559074628  0.9815370707090804 2.778214865778854 -2.789250505759619  1.013475345489448 2.861817704396183 -2.235671116027784  1.055849759321274 2.898356228459238 -1.677594140621302  1.093646323460014 2.92793989028903 -1.118725590781912  1.124098871622056 2.957526991478201 -0.5594169689370629  0.2477015793419729 -2.415655802610486 -5.510682951113449  0.8844491790088972 -2.245867158009595 -5.438931443942415  1.464891069119211 -1.932330028996181 -5.373934600293736  1.955087092649627 -1.489613175355717 -5.319502697776375  2.318355026965356 -0.937054784961175 -5.279744576064058  2.524994411863564 -0.307899182343253 -5.257941630215678  2.574632820450045 0.3531084349228537 -5.254020561031156  2.465743861849647 1.006614152640354 -5.268052816559671  2.183897076015212 1.604484044160622 -5.301550147358176  1.722560240631265 2.07491696755195 -5.35506775502591  1.13806318635062 2.378906583716481 -5.422118662603529  1.742182153284979 2.73179858498085 5.854691697147836e-16  2.262480931380501 2.395264875892136 -2.601681534737615e-16  2.698000706832733 1.954727370266727 -3.903113804560263e-16  3.021530388777258 1.426473918441798 1.707421408502106e-16  3.223363606607101 0.8405687193648443 -2.844806418042028e-16  3.305434793487241 0.2261994274297442 -4.472186606099012e-16  3.269241566985055 -0.3926051469820059 3.171555149681837e-16  3.113478077610213 -0.9924495549400153 3.510830505762065e-16  2.840400132149515 -1.548806515270482 -1.707368614952523e-16  2.466120284856568 -2.042983582774378 9.732831365154574e-17  2.008125599488538 -2.460814027017948 -3.577575055983979e-16  1.482521285196868 -2.789563899556613 -4.886146623064541e-17  0.9057866143556688 -3.01678997208197 -2.439392613813594e-16  0.2964958724913082 -3.130681163554852 3.414395345104792e-16  -0.32338307292875 -3.126978161260848 2.926910878106614e-16  -1.29067345658392 -0.3506098753383553 -5.690421630247788  -1.068897680254163 -0.8451623229646739 -5.663999894259847  -0.6782440885714781 -1.219621806060448 -5.6187489875115  -0.168757542531344 -1.390394566692369 -5.560546895724229  0.3611301401510615 -1.294122251639114 -5.500717901478111  0.8191548613516448 -1.005201308695582 -5.449538098373106  1.16817203978903 -0.5892762115769014 -5.411042670828763  1.960898302630318 -0.551652302616722 -8.131516293641286e-17  1.751009740180289 -1.077278642631261 7.445724005953314e-16  1.394016468000002 -1.516729095803803 1.136104663605282e-15  0.9227767039454898 -1.830301465573364 3.434443593283319e-16  0.3780412068884804 -1.984007749105097 8.617772484356591e-16  -0.1885780664025548 -1.977994130030172 2.357202029695971e-16  -0.7327557451871473 -1.821291124380143 1.942410916395698e-17  -1.191068596016128 -1.491774666596192 2.975009434367945e-16  -1.480405544894888 -1.006855825633415 6.954512630084263e-16  -1.812414118534285 0.2561131097252937 -2.664867827914479  2.421751940242729 0.6298287624476981 -1.933377861698098  0.7556418177061754 1.42269463362527 -4.617654324361507  0.003134751711410342 1.574821943356493 -0.9318675177876981  1.015098001669947 1.51699057942374 -0.9441494884276413  0.6193243625380082 1.764115149411371 -1.862230514405671  -0.4757031201037318 1.549728101933577 -1.958273018773558  0.1126459993007786 1.698838152590054 -2.957602797129454  -0.3405660022430232 1.569615851499001 -4.678135257405353  1.818199099779932 0.7365610114574719 -3.763003518505052  -0.9541815370276669 1.23451227632913 -2.875526912859068  -1.269464226480212 1.016489154450913 -4.672047638709048  1.301562892980348 1.557566760682666 -2.802482532053872  -0.7813756340336595 1.414221906310649 -3.725761628685261  -1.58370798409762 0.5643609111372817 -3.581008460136619  -0.988817348255397 1.158392548936659 -1.014254585170146  -1.607700527190565 0.2800106654898483 -1.030081240453645  -1.388203055800784 0.7951310659851955 -1.943712885648593  0.8261955720421881 1.570157055202129 -3.620947225245673  1.681455131778566 1.410849015379531 -1.876189895849114  1.878739160554727 0.943024132521903 -0.9866418074548234  2.103426639579445 1.000735947836943 -2.593434794762663  1.62623803052506 0.6468498306152269 -4.727220189271843  -1.882943490361709 -0.1546739965127431 -1.761716647663214  0.05868355051519467 1.656538949473053 -3.863342338366238  2.465845305360337 0.2632819454094029 -2.663569745038379  1.994842599423799 0.5019775153043848 -0.4779055074204815  2.1671824130763 0.4980244878585698 -1.027636182799239  1.710213566460811 0.9718796190568162 -0.4957578884333736  1.845584590132108 0.2253887364997403 -4.583879812097906  1.579035044615276 0.2924902970866011 -5.101748935835201  1.409777182251665 0.7868327264427526 -5.07202467441607  -1.039178737375989 1.089168173550246 -5.170746090958521  -1.377687418630729 0.6683636420802941 -5.233117919580046  -1.641402128985454 0.4875654733502939 -4.648722230221863  -1.765467255797776 -0.2695484060062747 -1.079683539430899  -1.617858736076732 -0.08318463488274264 -0.5123563299218489  -1.474019211051276 0.4496529111656123 -0.5150171376928306  2.417677350191343 0.3274903893149403 -1.506992657970159 
[...]
<PointData  Tensors="strain"> 
<DataArray  type="Float64"  Name="strain"  NumberOfComponents="9" format="ascii">-4.7413909890124901e-02 -1.0007938612371715e-02 -2.7261087525481914e-01 -1.0007938612371715e-02 1.0439068107868732e-02 -3.2971989633029615e-02 -2.7261087525481914e-01 -3.2971989633029615e-02 2.0548503089820888e-01  -1.8077945319688293e-01 4.6810486632298733e-02 1.4319235886890219e-01 4.6810486632298733e-02 3.5985877139722905e-01 -8.1237067772956653e-02 1.4319235886890222e-01 -8.1237067772956653e-02 1.9760765994173788e-02  -1.4177461273739558e-01 7.2973530189853142e-02 -1.7058119053062379e-01 7.2973530189853156e-02 3.4202022856850128e-01 9.0923928603311208e-02 -1.7058119053062379e-01 9.0923928603311208e-02 4.0288530947458967e-03  -6.6299998941352897e-02 -3.6599814362577136e-02 2.5376095670767729e-01 -3.6599814362577136e-02 3.2144379687768058e-03 -3.2666598913247968e-02 2.5376095670767729e-01 -3.2666598913247968e-02 2.3060835857446185e-01  9.1647050832335014e-02 -9.7405975989396081e-03 5.5778996374454104e-02 -9.7405975989396116e-03 -8.9010649767940708e-02 5.2988689862546172e-02 5.5778996374454104e-02 5.2988689862546172e-02 2.5757659910014555e-02  1.6404545171945878e-01 -6.7908913179953274e-03 -5.1859342920911766e-02 -6.7908913179953239e-03 -1.4403221185320711e-01 -3.6235286544972753e-02 -5.1859342920911773e-02 -3.6235286544972753e-02 2.9867041142550049e-02  2.3303986734925972e-03 1.4583501323595325e-02 -5.0432899283158764e-02 1.4583501323595318e-02 -1.8695870728463460e-02 1.6969661021371452e-01 -5.0432899283158771e-02 1.6969661021371449e-01 6.9066331924225427e-02  6.1198277261894085e-03 2.8852766693850059e-02 5.6723806124497109e-02 2.8852766693850059e-02 4.6022395998394187e-02 -7.6114439561618480e-02 5.6723806124497109e-02 -7.6114439561618480e-02 -3.5494227912140477e-02  -1.8539054335073876e-01 -4.1949097559823671e-02 -1.5173994062680157e-01 -4.1949097559823671e-02 1.8003208417614636e-01 -7.9180530735977112e-02 -1.5173994062680157e-01 -7.9180530735977070e-02 1.6267307618354088e-01  -2.1464432435488529e-01 -5.6010411505597754e-02 -1.2199241158376049e-01 -5.6010411505597754e-02 2.5533001627434992e-01 -6.3730717614767632e-02 -1.2199241158376049e-01 -6.3730717614767632e-02 1.3668734349270426e-01  -2.4583902778769831e-01 -1.0084331428754414e-02 -1.0577244520843772e-01 -1.0084331428754412e-02 2.8077600832612859e-01 -3.5389216812206296e-02 -1.0577244520843772e-01 -3.5389216812206289e-02 1.5683645957428341e-01  -2.6901006000911593e-01 2.6429647382090971e-02 1.8304596999707320e-03 2.6429647382090971e-02 2.6963027462973799e-01 -5.5454852451528466e-02 1.8304596999707320e-03 -5.5454852451528466e-02 1.9910002950283495e-01  -2.3037481186070777e-01 -4.3472677434649113e-03 1.2383145557307687e-01 -4.3472677434649052e-03 3.2557758324411884e-01 -7.1689321498694045e-02 1.2383145557307687e-01 -7.1689321498694045e-02 1.1087988179155556e-01  -2.2103198134581659e-01 -4.5583512982451405e-02 1.0977338198989899e-01 -4.5583512982451398e-02 3.7378251294400561e-01 -2.5680701727945718e-02 1.0977338198989899e-01 -2.5680701727945721e-02 4.9631165920461566e-02  -2.3435884753565145e-01 -1.5944537073847707e-02 9.6419128653344219e-02 -1.5944537073847707e-02 3.8481063816885414e-01 -1.5972393426464681e-02 9.6419128653344219e-02 -1.5972393426464681e-02 5.4900519935539398e-02  -2.1439797314765974e-01 6.9096750252013546e-03 1.2653235485083481e-01 6.9096750252013563e-03 3.6264544323048759e-01 -4.2274791048937742e-02 1.2653235485083481e-01 -4.2274791048937742e-02 5.1513084972075372e-02  -1.7046810697267673e-01 3.3536850908238554e-02 1.6490885948629400e-01 3.3536850908238561e-02 3.5441188202786783e-01 -5.6379626708983291e-02 1.6490885948629400e-01 -5.6379626708983291e-02 2.1205202700043408e-02  -1.4954525956127002e-01 -1.3168708704916079e-01 1.7584176637423379e-01 -1.3168708704916079e-01 2.9105011410648762e-01 -1.5563876511079025e-02 1.7584176637423379e-01 -1.5563876511079025e-02 5.5009281030167508e-02  1.2830203329346885e-02 -2.6573140233843767e-01 1.4011672052326793e-01 -2.6573140233843767e-01 1.1196458676563055e-01 5.5104151137560974e-02 1.4011672052326796e-01 5.5104151137560967e-02 7.2874213491378056e-02  2.0653427260237059e-01 -2.0948521692341657e-01 1.0695015556069190e-01 -2.0948521692341657e-01 -1.0933190532751787e-01 1.1060063875020690e-01 1.0695015556069190e-01 1.1060063875020693e-01 9.6328309696874476e-02  2.8818413002976873e-01 -4.8811498211018864e-02 6.6384743287143749e-02 -4.8811498211018857e-02 -1.9280656217611894e-01 1.6181262772328814e-01 6.6384743287143749e-02 1.6181262772328814e-01 1.0097902124496458e-01  2.5907708782562000e-01 1.1680847087427697e-01 -7.2339906180076260e-03 1.1680847087427697e-01 -1.4610536530850635e-01 1.9470229335144962e-01 -7.2339906180076260e-03 1.9470229335144967e-01 8.8076929626441230e-02  1.2239037035147353e-01 2.2418818565053655e-01 -6.9723037326935036e-02 2.2418818565053661e-01 1.1190106743226852e-02 1.8416249223903300e-01 -6.9723037326935050e-02 1.8416249223903303e-01 6.1919909627233212e-02  -3.8115677208282704e-02 2.0528674037453748e-01 -1.2671014039383666e-01 2.0528674037453751e-01 1.9751175927389009e-01 1.5263377595711558e-01 -1.2671014039383666e-01 1.5263377595711558e-01 3.9045422548479945e-02  -1.9883502192411698e-01 -1.5021632266106900e-02 1.3891867782410189e-01 -1.5021632266106900e-02 1.5634092470055172e-01 1.4164934585100342e-02 1.3891867782410189e-01 1.4164934585100342e-02 1.8292385177876508e-01  -2.0387236375024262e-01 -3.6335589900211712e-02 1.2500714325895360e-01 -3.6335589900211712e-02 2.4547331039257025e-01 9.3424123650441247e-03 1.2500714325895360e-01 9.3424123650441247e-03 1.1472527030371608e-01  -2.3202436597529427e-01 -3.8089573374180355e-02 1.0944727442519855e-01 -3.8089573374180355e-02 2.5651854158422793e-01 3.0122466050988322e-02 1.0944727442519855e-01 3.0122466050988322e-02 1.5495213422577148e-01  -2.6849461511360234e-01 -1.7819619717641313e-02 2.2210170969183908e-02 -1.7819619717641316e-02 2.8619855904650221e-01 5.4589337810496352e-02 2.2210170969183915e-02 5.4589337810496345e-02 1.7728375854090866e-01  -2.6405386287553712e-01 3.1118928938700611e-03 -4.7028094915781381e-02 3.1118928938700633e-03 3.1773969169060723e-01 9.0133399714666107e-02 -4.7028094915781388e-02 9.0133399714666107e-02 1.4865020678495605e-01  -2.4503382728598344e-01 -2.3303094580198101e-02 -6.4893640362578470e-02 -2.3303094580198101e-02 3.5391852454934608e-01 1.0547367034497987e-01 -6.4893640362578456e-02 1.0547367034497987e-01 9.1331564469046084e-02  -2.5284923755689953e-01 -1.4269507546679515e-02 -4.9069605880996785e-02 -1.4269507546679515e-02 3.5133613518044671e-01 1.1836354027375927e-01 -4.9069605880996792e-02 1.1836354027375927e-01 1.0338278988971325e-01  -2.5613568216503968e-01 4.2972842979423317e-02 -6.5338550997022959e-02 4.2972842979423317e-02 3.3126423832143814e-01 1.0338647808890598e-01 -6.5338550997022959e-02 1.0338647808890598e-01 1.3208668961779513e-01  -2.0547816314779560e-01 6.1290584415142339e-02 -1.3696515599442136e-01 6.1290584415142332e-02 3.2337212149081718e-01 1.0750361012074880e-01 -1.3696515599442136e-01 1.0750361012074880e-01 9.1619963696022835e-02  -9.3728066617063330e-02 -5.4166324052434996e-04 2.4437089610370355e-01 -5.4166324052434974e-04 1.3998276774081603e-02 -6.4228177861481120e-02 2.4437089610370355e-01 -6.4228177861481120e-02 2.5121276474732152e-01  -8.0393659069702389e-02 3.1741654371618647e-02 2.0743783073660957e-01 3.1741654371618640e-02 -2.6315924851772867e-03 -1.3472070300700689e-01 2.0743783073660957e-01 -1.3472070300700689e-01 2.5272776842564354e-01  -5.9824542599104691e-02 6.0286158348302928e-02 1.7248557189729705e-01 6.0286158348302928e-02 -3.1694502102088379e-02 -1.7569566581089652e-01 1.7248557189729705e-01 -1.7569566581089652e-01 2.6555772542128331e-01  -1.8566254282203602e-02 4.6650553102038098e-02 1.0166259472822892e-01 4.6650553102038098e-02 -6.8931635320865076e-02 -2.1878529335009156e-01 1.0166259472822892e-01 -2.1878529335009153e-01 2.6632652192810657e-01  3.6128142087774962e-04 3.2289473102618746e-02 6.1573647190233567e-02 3.2289473102618746e-02 -9.4017633219786512e-02 -2.3885666164337294e-01 6.1573647190233567e-02 -2.3885666164337294e-01 2.7831094273869916e-01  4.4027173300324168e-03 3.3509339118072321e-03 -2.7822353114310090e-02 3.3509339118072321e-03 -9.8950448207388630e-02 -2.4882102133860617e-01 -2.7822353114310090e-02 -2.4882102133860612e-01 2.8666275958116078e-01  1.1559468787129448e-02 -1.9438391217443944e-02 -8.4943513519382036e-02 -1.9438391217443944e-02 -8.4251159578579898e-02 -2.4338409931687280e-01 -8.4943513519382036e-02 -2.4338409931687274e-01 2.4721791157023426e-01  -2.0189844187541339e-02 -5.2171099625727635e-02 -1.9477006980003977e-01 -5.2171099625727635e-02 -5.2195055648663544e-02 -1.7565555071752048e-01 -1.9477006980003977e-01 -1.7565555071752048e-01 2.6739850855720915e-01  -7.2090620890290669e-02 -4.3316911658060668e-02 -2.4886104402338743e-01 -4.3316911658060668e-02 -2.4255334592002610e-02 -9.8367164824069556e-02 -2.4886104402338743e-01 -9.8367164824069556e-02 2.9690457183042224e-01  7.8414708370312419e-02 3.4717990872595438e-02 3.1678815611944279e-02 3.4717990872595451e-02 -8.0647525835160550e-02 7.3335458572838672e-02 3.1678815611944279e-02 7.3335458572838630e-02 3.1003363851373523e-02  6.7127536046140968e-02 7.2328057882673921e-02 1.6394102258200111e-02 7.2328057882673866e-02 -6.2189158722421339e-02 7.8404961745543969e-02 1.6394102258200111e-02 7.8404961745543969e-02 2.7056182338797575e-02  1.2830145636951871e-02 8.3335252893314907e-02 -1.0740879544544914e-02 8.3335252893314921e-02 -1.9962355558786761e-02 8.2615973014272009e-02 -1.0740879544544914e-02 8.2615973014272023e-02 3.5219513651413528e-02  -2.3637083420311646e-02 9.1397490620947361e-02 -4.4411976777600629e-02 9.1397490620947361e-02 5.0339475240225071e-02 7.4232101859682834e-02 -4.4411976777600629e-02 7.4232101859682834e-02 7.4710724155998883e-03  -6.1507545319516639e-02 5.9203370624287738e-02 -6.2038307197094238e-02 5.9203370624287710e-02 9.3553356058210760e-02 6.7110881985992257e-02 -6.2038307197094238e-02 6.7110881985992257e-02 3.1343674855001530e-03  -8.4946750600165002e-02 1.9644968978072472e-02 -7.3893736613146910e-02 1.9644968978072497e-02 1.0208395606904977e-01 4.6993951167442032e-02 -7.3893736613146910e-02 4.6993951167442032e-02 1.7455148790516597e-02  -7.6860683599288243e-02 -2.2924336774453657e-02 -9.1892900526510279e-02 -2.2924336774453664e-02 1.0176918500299517e-01 2.9959608473432146e-02 -9.1892900526510279e-02 2.9959608473432132e-02 1.3983666569543149e-02  -4.3910369888904982e-02 -7.6139075787607868e-02 -7.9068040062632905e-02 -7.6139075787607868e-02 7.6671110976285206e-02 1.5055730316846031e-03 -7.9068040062632905e-02 1.5055730316846025e-03 -1.8517058305924188e-03  7.4894627240222385e-03 -9.9624123864404793e-02 -8.4872939846607390e-02 -9.9624123864404793e-02 6.0162061037293164e-03 7.9017199335705956e-03 -8.4872939846607418e-02 7.9017199335705956e-03 1.7225666134920572e-02  4.9017808350620633e-02 -4.2781912877043304e-02 -7.8708520393791670e-02 -4.2781912877043304e-02 -7.3525127878984964e-02 -2.4202338971779369e-02 -7.8708520393791698e-02 -2.4202338971779366e-02 4.2492954590458723e-02  1.2249902780732487e-01 -6.1977860961861420e-02 -6.1394800909557491e-02 -6.1977860961861399e-02 -1.0793438452148482e-01 -4.2663726523197790e-02 -6.1394800909557491e-02 -4.2663726523197790e-02 2.5827093023969853e-02  1.9904341409127410e-01 -4.1254040506574989e-02 -7.1793089963474457e-02 -4.1254040506574968e-02 -1.6913741755610701e-01 -9.7015523222462610e-02 -7.1793089963474457e-02 -9.7015523222462610e-02 7.5498670755515807e-02  1.9496441387788799e-01 -2.9046173204394704e-02 -6.3815398094322046e-02 -2.9046173204394704e-02 -1.0369684358527441e-01 -1.5249393894084168e-01 -6.3815398094322059e-02 -1.5249393894084168e-01 2.0126873901149048e-02  1.6403752357745777e-01 -7.1094229321988838e-03 -3.5959841968823111e-02 -7.1094229321988804e-03 -7.7984417600115902e-02 -1.2885579980670009e-01 -3.5959841968823118e-02 -1.2885579980670009e-01 -1.7362681813101681e-02  1.4055979923754244e-01 6.7021260321895797e-04 -2.8233372753444543e-02 6.7021260321895797e-04 -1.1227563086538708e-01 -8.6910961924691596e-02 -2.8233372753444549e-02 -8.6910961924691596e-02 1.9092445128744740e-02  1.1807007339505068e-01 -2.9687148619189203e-02 -4.8617159142722473e-02 -2.9687148619189203e-02 -1.4799786847649166e-01 -5.4820144823796935e-02 -4.8617159142722473e-02 -5.4820144823796935e-02 8.7258634812023478e-02  9.1940546228614028e-02 -3.1915034952993131e-02 -3.8993618809031676e-02 -3.1915034952993131e-02 -1.4403258437801728e-01 -2.7333311338793173e-02 -3.8993618809031676e-02 -2.7333311338793173e-02 9.7515571071670651e-02  6.1386975113787344e-02 -4.7068971799669852e-02 -6.9935410407943824e-03 -4.7068971799669852e-02 -1.0107796536056542e-01 3.7606622197086000e-02 -6.9935410407943824e-03 3.7606622197085986e-02 6.1930550729124699e-02  4.6709791467462417e-02 -7.3116453619585478e-02 -3.3577989048219940e-04 -7.3116453619585478e-02 -8.1028561385810466e-02 1.1358174426573450e-01 -3.3577989048219934e-04 1.1358174426573450e-01 8.5172516723969013e-02  4.5102194715036938e-02 -5.8972638538026999e-02 -1.3823457718007297e-02 -5.8972638538026999e-02 -9.8675880597654364e-02 1.4837428158068747e-01 -1.3823457718007297e-02 1.4837428158068747e-01 1.3023504000869601e-01  1.0297898173955605e-02 1.0726892323590332e-02 -1.8831527260569400e-02 1.0726892323590332e-02 -2.3290528837171733e-02 1.6065817925705367e-01 -1.8831527260569400e-02 1.6065817925705367e-01 5.1972626430326269e-02  1.5213810009050529e-02 3.5125768935965669e-03 4.3786295968877304e-03 3.5125768935965643e-03 -2.5030404149945996e-02 1.4766174829093121e-01 4.3786295968877304e-03 1.4766174829093121e-01 3.8740941998755295e-02  2.0364589702808685e-02 -8.9565415892693141e-03 3.5466289863427009e-02 -8.9565415892693141e-03 -2.9339539854595299e-02 1.4216762777752548e-01 3.5466289863427009e-02 1.4216762777752548e-01 3.8523346572346837e-02  2.6242387129454509e-02 -2.1600543216817859e-02 5.4931110767741174e-02 -2.1600543216817859e-02 -2.1231482780504463e-02 1.2688585762760909e-01 5.4931110767741174e-02 1.2688585762760909e-01 2.3998915520064449e-02  2.0058276882238692e-02 -1.8450137469199511e-02 7.8482196627156997e-02 -1.8450137469199511e-02 -1.7544052274860614e-02 1.1227099344922600e-01 7.8482196627156997e-02 1.1227099344922600e-01 2.1528384827810294e-02  4.6799177260314372e-02 -1.2564707843121166e-02 6.9072711904813552e-02 -1.2564707843121166e-02 3.4462577431114535e-04 8.4020370810571912e-02 6.9072711904813552e-02 8.4020370810571912e-02 -3.5256291866542652e-02  5.1008642928845827e-02 -1.9343160609013699e-02 8.3043701870328168e-02 -1.9343160609013695e-02 6.0315743746743250e-03 4.9426538668474171e-02 8.3043701870328127e-02 4.9426538668474171e-02 -4.4831723170816296e-02  2.0182110143435850e-02 -3.7945890699350990e-02 1.1154770467062883e-01 -3.7945890699350990e-02 2.0396609399218356e-02 3.9240816964755384e-02 1.1154770467062883e-01 3.9240816964755384e-02 -1.5291162608980153e-02  2.6505545625313771e-02 -4.0460852778813484e-02 1.0133290394082498e-01 -4.0460852778813498e-02 4.2182534747831825e-02 5.8321886852170934e-03 1.0133290394082498e-01 5.8321886852170900e-03 -4.9272079178499455e-02  1.2210336776755149e-02 -4.1290593690100984e-02 1.0318073960348348e-01 -4.1290593690100998e-02 5.9961694778268994e-02 -1.0201002093756814e-02 1.0318073960348348e-01 -1.0201002093756814e-02 -5.1626185425270039e-02  -1.5197504096987833e-02 -2.4384347111755255e-02 9.5163841357134932e-02 -2.4384347111755248e-02 7.0545899548845076e-02 -3.8145358173402706e-02 9.5163841357134960e-02 -3.8145358173402706e-02 -3.4929782963299780e-02  -2.4374529778852516e-02 5.7488075070560515e-03 9.3571418794170885e-02 5.7488075070560515e-03 5.8276228916926721e-02 -5.4064083206482247e-02 9.3571418794170885e-02 -5.4064083206482247e-02 -9.8444543184926878e-03  5.0809599768778324e-03 8.7501610983219801e-03 6.0270809863186038e-02 8.7501610983219801e-03 6.7078156755530902e-02 -6.0939151072615570e-02 6.0270809863186038e-02 -6.0939151072615570e-02 -5.6993260209793832e-02  1.2227221376562056e-02 -3.3380829464297636e-02 -1.0510018152161290e-02 -3.3380829464297636e-02 8.2227531528164810e-02 -8.2753663532607422e-02 -1.0510018152161286e-02 -8.2753663532607422e-02 -8.2631059991827252e-02  -1.7027269409792472e-02 2.6921137372236423e-02 4.3806681193651976e-02 2.6921137372236423e-02 4.8297321639386652e-02 -7.7828472731370210e-02 4.3806681193651976e-02 -7.7828472731370210e-02 -1.3653920499106851e-02  8.2739572741891032e-02 -4.0385677468368436e-02 4.2103474976097684e-02 -4.0385677468368450e-02 -1.0128601979791869e-01 3.6030436430811427e-02 4.2103474976097684e-02 3.6030436430811441e-02 4.8143736623634102e-02  8.2339129928525073e-02 -4.2786623166485890e-02 5.2030908340148362e-02 -4.2786623166485890e-02 -1.1127332305880595e-01 3.3646926232882329e-03 5.2030908340148362e-02 3.3646926232882356e-03 5.7528521438572178e-02  1.0212286815188316e-01 -6.8166769946853570e-02 5.4530984072206690e-02 -6.8166769946853570e-02 -1.3584068743724423e-01 -5.4649735275431729e-03 5.4530984072206690e-02 -5.4649735275431746e-03 8.3735072392542770e-02  1.3318753696832081e-01 -6.8554176562430388e-02 5.9960982441150078e-02 -6.8554176562430388e-02 -1.6031966516513629e-01 1.5915933986890052e-02 5.9960982441150078e-02 1.5915933986890052e-02 1.0023593312201225e-01  1.2193250180471916e-01 -5.8457579940461850e-02 5.8020894477196883e-02 -5.8457579940461850e-02 -1.5588105135818597e-01 2.8959038649458056e-02 5.8020894477196883e-02 2.8959038649458056e-02 1.0171585320171994e-01  1.1078523319418447e-01 -4.4971100251363784e-02 4.5191624035424080e-02 -4.4971100251363784e-02 -1.5660640510945947e-01 2.3192386752876420e-02 4.5191624035424073e-02 2.3192386752876420e-02 1.0535124770777378e-01  8.3602774311706443e-02 -3.7202859138575878e-02 3.5250038095630522e-02 -3.7202859138575871e-02 -1.4884692768836869e-01 1.0578052132557223e-02 3.5250038095630522e-02 1.0578052132557223e-02 1.1541417397152844e-01  5.6275707477821568e-02 -3.4885599217251199e-02 6.3524176136007041e-02 -3.4885599217251199e-02 -1.3111160393966648e-01 -9.2464235664299413e-03 6.3524176136007041e-02 -9.2464235664299465e-03 1.1411246488929284e-01  4.4066827478605797e-02 -1.9604287220988292e-02 6.9988068768630229e-02 -1.9604287220988292e-02 -4.7712730059691830e-02 -6.1711866124089295e-03 6.9988068768630229e-02 -6.1711866124089304e-03 8.6679943436905639e-03  1.4802576267342535e-01 5.1512366179217520e-02 -3.5363608539108297e-02 5.1512366179217520e-02 -1.3220879568122176e-01 -6.9668205631227609e-02 -3.5363608539108297e-02 -6.9668205631227609e-02 3.6752976529142688e-02  1.2196047624713829e-01 1.3017601253009131e-01 -1.2145350793958476e-02 1.3017601253009128e-01 -9.5642732984414294e-02 -7.5841553078873150e-02 -1.2145350793958476e-02 -7.5841553078873150e-02 3.7467897212334345e-02  3.6566638466744239e-02 1.5321945161835346e-01 1.2798312190461238e-02 1.5321945161835346e-01 -3.4294759447514422e-02 -7.3629717968819688e-02 1.2798312190461248e-02 -7.3629717968819688e-02 5.6729848320656681e-02  -5.2375132549231367e-02 1.4988010009532554e-01 2.9683955642248811e-02 1.4988010009532554e-01 5.4727188549981827e-02 -6.9640075809841981e-02 2.9683955642248815e-02 -6.9640075809841981e-02 5.8022806685458214e-02  -1.0704891695243861e-01 9.1921570868151142e-02 4.6791672287557116e-02 9.1921570868151142e-02 8.5187232486382936e-02 -6.6986169594080949e-02 4.6791672287557116e-02 -6.6986169594080949e-02 7.2506714884624346e-02  -1.1826405067459179e-01 3.3609576866801230e-02 6.7876275135994105e-02 3.3609576866801230e-02 1.1475515036670994e-01 -4.9268345844712770e-02 6.7876275135994077e-02 -4.9268345844712770e-02 4.9678116769274895e-02  -9.3984927841580634e-02 -3.4616547497901773e-02 8.1663300180910406e-02 -3.4616547497901773e-02 9.4753749173181953e-02 -2.9094320114595888e-02 8.1663300180910406e-02 -2.9094320114595888e-02 3.4078751025230405e-02  -8.9500292571626283e-02 -5.2438545306864787e-02 6.7043744405406808e-02 -5.2438545306864794e-02 6.6338559324946672e-02 -2.4594720744052799e-02 6.70437444