<?xml version="1.0"?>
<VTKFile type="UnstructuredGrid"  version="0.1"  >
<UnstructuredGrid>
<Piece  NumberOfPoints="1268" NumberOfCells="4847">
<Points>
<DataArray  type="Float64"  NumberOfComponents="3"  format="ascii">1.994716987487452 0.01317707561264319 -1.202466945460223e-11  1.374072606111497 -0.08614134488653273 -5.388997575085332  -1.285941478930618 0.1916557790035214 -5.691288663606836  -1.59032616235459 -0.4515196446136259 1.626303258728257e-17  0.4950030257755884 2.521650519233041 -5.495391852657774  -0.4107718940653654 -2.429115409112172 -5.58531208084276  -0.9314707163843408 -3.006923447963563 4.87890977618477e-17  1.161824811771535 2.948440156756841 -3.391384395534658e-14  2.146749234505421 0.002696741478414759 -0.5615078450779066  2.330988047973839 -0.000873250973709995 -1.113141311680313  2.540713632977715 -0.1384292375506191 -1.637427654548237  2.645241452520652 -0.2872312815961211 -2.18637082393926  2.504842461151312 -0.2752146673621067 -2.746850782899552  2.287876352721185 -0.2088259978706829 -3.283011632728322  2.137771360922677 -0.2093380261300688 -3.844996501809416  1.970142554575494 -0.2193701374385486 -4.401638277082749  1.701580801829277 -0.1696632515169769 -4.915066532844666  1.398049690886424 0.4419377546899956 -5.387643705321969  1.183972204621215 0.9208338616597355 -5.413149504812257  0.7621482426349403 1.234356207118232 -5.461782499987256  0.2539805730796886 1.370727420898931 -5.519751404145364  -0.2689415860383004 1.319053689498898 -5.578906487138381  -0.7357170559581984 1.076180709179107 -5.631191713357971  -1.086003096318238 0.6812820615514149 -5.669884670156524  -1.65706961757681 -0.5275128747266272 -0.6240725009925172  -1.829082870387909 -0.8347372240299333 -1.153553189134448  -2.030635262011336 -1.097965926806997 -1.693320688638939  -2.148557703924963 -0.9683820133813712 -2.295450526931833  -2.119047321408695 -0.7521727279271558 -2.890676896601294  -1.972500555455803 -0.7106310836492745 -3.509380855831461  -1.885028119342598 -0.4902108162504233 -4.093718100793141  -1.832050776792238 -0.1313823297003599 -4.617858136599065  -1.636180550340053 0.1151199882480144 -5.165527944859976  -1.540434086810702 0.1014447694855235 -7.644826989049428e-17  -1.339902801239663 0.6191128040412099 2.218327606354497e-17  -0.9949589579071262 1.053322092476122 2.12059320661159e-17  -0.5243975458638882 1.346285776146202 7.754217898549941e-16  0.01399251627036286 1.481823287560149 3.252316763596149e-17  0.5696211504784076 1.47677978548424 -7.207855520904863e-17  1.105448032340458 1.331487337928338 1.951563910473908e-16  1.561367740818086 1.018090979386763 -2.179459114756194e-16  1.860006992193919 0.551530302300456 1.369433074745588e-16  -0.152869286718376 2.506583809965366 -5.568804938302105  -0.7781210310064858 2.335338381675429 -5.639249366957451  -1.340550096787874 2.011723800088065 -5.702178028336585  -1.803922993566052 1.555830170950866 -5.753534898075912  -2.144678763029901 1.000979069722826 -5.790734833138769  -2.346903237737564 0.3811866585909049 -5.812061421922149  -2.406990243842066 -0.2684488461825228 -5.817196438260218  -2.318433628103212 -0.9144163570965761 -5.805488779558074  -2.059391262210163 -1.511004864267824 -5.774580158166454  -1.615755841275718 -1.983465489741105 -5.72306417450185  -1.043145925381342 -2.287058241276404 -5.657361969815248  -0.6986882361605687 -2.420627649803484 -5.024556445072709  -0.8272574030199392 -2.685291244074475 -4.476216325063944  -0.8113210073272845 -3.118860027310894 -4.01596683617901  -0.7618552434953355 -3.481598098596065 -3.504026669625047  -0.7509882165597778 -3.609083979854663 -2.886473298216772  -0.7986167670519319 -3.732483084086931 -2.268445488219849  -0.8276969497603353 -3.810997815301134 -1.64593496945388  -0.7425506523451623 -3.557242155569485 -1.078322423839125  -0.7147449622328144 -3.21189056194362 -0.5511080601316157  -1.482234509376526 -2.778582553401298 -5.854479658363816e-16  -1.970737176894139 -2.437284655419533 2.764697292186607e-16  -2.362818572203899 -1.988727212877528 2.439101268600111e-16  -2.642390785384022 -1.462244173776716 5.051059276813266e-16  -2.812149102113852 -0.89052423419162 2.276851973687203e-16  -2.877946727920729 -0.2976446157883296 -1.219909928720168e-16  -2.842947107925845 0.2978601752284433 4.065446096494693e-17  -2.70313036896374 0.8776122116387211 -5.041496169361013e-16  -2.452324348076021 1.418519584933707 4.379274460317988e-16  -2.098265626135573 1.898294456130726 1.951060033519619e-16  -1.658391347368763 2.301023318502569 -1.789574489620802e-16  -1.154148079923361 2.619757341302747 -2.081203863085907e-15  -0.6042202207747882 2.851073703499478 -3.577841418755692e-16  -0.02416138323675775 2.990516581461941 4.065982498622179e-16  0.5710641261211448 3.028216945076794 -1.46882551317968e-16  0.6414151130412097 2.696325287154043 -4.983333021490838  0.771852374565919 2.778456367279237 -4.445188759107248  0.8805845204306011 2.73078881179073 -3.897720120696569  0.9481597620953167 2.69798349057175 -3.343104559074628  0.9815370707090804 2.778214865778854 -2.789250505759619  1.013475345489448 2.861817704396183 -2.235671116027784  1.055849759321274 2.898356228459238 -1.677594140621302  1.093646323460014 2.92793989028903 -1.118725590781912  1.124098871622056 2.957526991478201 -0.5594169689370629  0.2477015793419729 -2.415655802610486 -5.510682951113449  0.8844491790088972 -2.245867158009595 -5.438931443942415  1.464891069119211 -1.932330028996181 -5.373934600293736  1.955087092649627 -1.489613175355717 -5.319502697776375  2.318355026965356 -0.937054784961175 -5.279744576064058  2.524994411863564 -0.307899182343253 -5.257941630215678  2.574632820450045 0.3531084349228537 -5.254020561031156  2.465743861849647 1.006614152640354 -5.268052816559671  2.183897076015212 1.604484044160622 -5.301550147358176  1.722560240631265 2.07491696755195 -5.35506775502591  1.13806318635062 2.378906583716481 -5.422118662603529  1.742182153284979 2.73179858498085 5.854691697147836e-16  2.262480931380501 2.395264875892136 -2.601681534737615e-16  2.698000706832733 1.954727370266727 -3.903113804560263e-16  3.021530388777258 1.426473918441798 1.707421408502106e-16  3.223363606607101 0.8405687193648443 -2.844806418042028e-16  3.305434793487241 0.2261994274297442 -4.472186606099012e-16  3.269241566985055 -0.3926051469820059 3.171555149681837e-16  3.113478077610213 -0.9924495549400153 3.510830505762065e-16  2.840400132149515 -1.548806515270482 -1.707368614952523e-16  2.466120284856568 -2.042983582774378 9.732831365154574e-17  2.008125599488538 -2.460814027017948 -3.577575055983979e-16  1.482521285196868 -2.789563899556613 -4.886146623064541e-17  0.9057866143556688 -3.01678997208197 -2.439392613813594e-16  0.2964958724913082 -3.130681163554852 3.414395345104792e-16  -0.32338307292875 -3.126978161260848 2.926910878106614e-16  -1.29067345658392 -0.3506098753383553 -5.690421630247788  -1.068897680254163 -0.8451623229646739 -5.663999894259847  -0.6782440885714781 -1.219621806060448 -5.6187489875115  -0.168757542531344 -1.390394566692369 -5.560546895724229  0.3611301401510615 -1.294122251639114 -5.500717901478111  0.8191548613516448 -1.005201308695582 -5.449538098373106  1.16817203978903 -0.5892762115769014 -5.411042670828763  1.960898302630318 -0.551652302616722 -8.131516293641286e-17  1.751009740180289 -1.077278642631261 7.445724005953314e-16  1.394016468000002 -1.516729095803803 1.136104663605282e-15  0.9227767039454898 -1.830301465573364 3.434443593283319e-16  0.3780412068884804 -1.984007749105097 8.617772484356591e-16  -0.1885780664025548 -1.977994130030172 2.357202029695971e-16  -0.7327557451871473 -1.821291124380143 1.942410916395698e-17  -1.191068596016128 -1.491774666596192 2.975009434367945e-16  -1.480405544894888 -1.006855825633415 6.954512630084263e-16  -1.812414118534285 0.2561131097252937 -2.664867827914479  2.421751940242729 0.6298287624476981 -1.933377861698098  0.7556418177061754 1.42269463362527 -4.617654324361507  0.003134751711410342 1.574821943356493 -0.9318675177876981  1.015098001669947 1.51699057942374 -0.9441494884276413  0.6193243625380082 1.764115149411371 -1.862230514405671  -0.4757031201037318 1.549728101933577 -1.958273018773558  0.1126459993007786 1.698838152590054 -2.957602797129454  -0.3405660022430232 1.569615851499001 -4.678135257405353  1.818199099779932 0.7365610114574719 -3.763003518505052  -0.9541815370276669 1.23451227632913 -2.875526912859068  -1.269464226480212 1.016489154450913 -4.672047638709048  1.301562892980348 1.557566760682666 -2.802482532053872  -0.7813756340336595 1.414221906310649 -3.725761628685261  -1.58370798409762 0.5643609111372817 -3.581008460136619  -0.988817348255397 1.158392548936659 -1.014254585170146  -1.607700527190565 0.2800106654898483 -1.030081240453645  -1.388203055800784 0.7951310659851955 -1.943712885648593  0.8261955720421881 1.570157055202129 -3.620947225245673  1.681455131778566 1.410849015379531 -1.876189895849114  1.878739160554727 0.943024132521903 -0.9866418074548234  2.103426639579445 1.000735947836943 -2.593434794762663  1.62623803052506 0.6468498306152269 -4.727220189271843  -1.882943490361709 -0.1546739965127431 -1.761716647663214  0.05868355051519467 1.656538949473053 -3.863342338366238  2.465845305360337 0.2632819454094029 -2.663569745038379  1.994842599423799 0.5019775153043848 -0.4779055074204815  2.1671824130763 0.4980244878585698 -1.027636182799239  1.710213566460811 0.9718796190568162 -0.4957578884333736  1.845584590132108 0.2253887364997403 -4.583879812097906  1.579035044615276 0.2924902970866011 -5.101748935835201  1.409777182251665 0.7868327264427526 -5.07202467441607  -1.039178737375989 1.089168173550246 -5.170746090958521  -1.377687418630729 0.6683636420802941 -5.233117919580046  -1.641402128985454 0.4875654733502939 -4.648722230221863  -1.765467255797776 -0.2695484060062747 -1.079683539430899  -1.617858736076732 -0.08318463488274264 -0.5123563299218489  -1.474019211051276 0.4496529111656123 -0.5150171376928306  2.417677350191343 0.3274903893149403 -1.506992657970159 
[...]
<PointData  Tensors="strain"> 
<DataArray  type="Float64"  Name="strain"  NumberOfComponents="9" format="ascii">-4.6344446844927910e-02 -5.4411675173843682e-03 -1.2798967393902530e-01 -5.4411675173843682e-03 3.6249228535494499e-03 1.1951739961466954e-02 -1.2798967393902530e-01 1.1951739961466954e-02 8.4631319584153097e-02  -1.1463465715783723e-01 2.5757232345285163e-02 9.1961479874066610e-02 2.5757232345285163e-02 1.9201068625249126e-01 -5.1133171909539088e-02 9.1961479874066596e-02 -5.1133171909539081e-02 -9.9451101162550768e-03  -9.7287777025140840e-02 4.1351074601174563e-02 -1.0285135860160460e-01 4.1351074601174556e-02 1.9319703412560124e-01 4.8101353321888127e-02 -1.0285135860160460e-01 4.8101353321888127e-02 -2.5163247100028624e-02  -5.3581373149510100e-02 -2.3241519135958746e-02 1.1490590892316555e-01 -2.3241519135958746e-02 2.2563340500398471e-04 -4.6791001996354505e-02 1.1490590892316555e-01 -4.6791001996354505e-02 9.7417781814956014e-02  5.4026962587801139e-02 -3.3442847366568452e-03 2.9330787044027029e-02 -3.3442847366568435e-03 -4.8238919027244448e-02 1.9500842089740102e-02 2.9330787044027029e-02 1.9500842089740098e-02 1.6431561726042267e-03  1.0872977483726604e-01 2.4011912374681354e-03 -2.8900741886172723e-02 2.4011912374681354e-03 -8.3305468746298614e-02 -2.4457678737297071e-02 -2.8900741886172723e-02 -2.4457678737297067e-02 -5.1522591950429611e-03  9.9974571712966899e-03 1.9381724888505397e-02 -4.0402696408446494e-02 1.9381724888505397e-02 -1.2416835147902186e-02 6.7336330279943499e-02 -4.0402696408446494e-02 6.7336330279943499e-02 1.0611258430293083e-02  1.9266230158743209e-03 1.5437939055154707e-02 2.9102105867804512e-02 1.5437939055154707e-02 2.6980266994142514e-02 -2.5583849750757195e-02 2.9102105867804512e-02 -2.5583849750757195e-02 -2.5322263069873632e-02  -1.2751629348660004e-01 -2.2045784666573417e-02 -6.6882166678622790e-02 -2.2045784666573417e-02 8.7028556791442627e-02 -3.4157167178976322e-02 -6.6882166678622790e-02 -3.4157167178976322e-02 8.1155375148588157e-02  -1.4273567019677896e-01 -2.6538157133800550e-02 -6.7690545137326447e-02 -2.6538157133800550e-02 1.2870331615920183e-01 -2.9842022627724230e-02 -6.7690545137326447e-02 -2.9842022627724230e-02 6.7740180723171867e-02  -1.6474040134049836e-01 -6.3401183455235807e-03 -5.9822827058759173e-02 -6.3401183455235799e-03 1.5077929234805573e-01 -1.4886408982924867e-02 -5.9822827058759173e-02 -1.4886408982924863e-02 7.7357803247609686e-02  -1.8102692077863045e-01 1.6090865319074034e-02 3.0168895327684930e-03 1.6090865319074034e-02 1.4712328723851989e-01 -3.4818189865224294e-02 3.0168895327684925e-03 -3.4818189865224294e-02 1.0339179776554139e-01  -1.5793975109981598e-01 -2.9970085365449962e-03 6.9996442194649969e-02 -2.9970085365450009e-03 1.8993193432245725e-01 -4.6388671261338082e-02 6.9996442194649969e-02 -4.6388671261338096e-02 4.2488893024440942e-02  -1.4923379864403910e-01 -3.1377161303368664e-02 5.9863949438406443e-02 -3.1377161303368664e-02 2.1873326692192249e-01 -1.1344073950677830e-02 5.9863949438406443e-02 -1.1344073950677836e-02 3.6700866272350633e-03  -1.5635964218632278e-01 -1.2727800953332943e-02 5.2669918674158621e-02 -1.2727800953332943e-02 2.2939892480735086e-01 -8.0211213875882315e-03 5.2669918674158621e-02 -8.0211213875882315e-03 2.3699883929444196e-03  -1.4414591156227385e-01 -1.9031198903831017e-03 7.3104043439140509e-02 -1.9031198903831017e-03 2.1383524854097094e-01 -2.9344761305233402e-02 7.3104043439140523e-02 -2.9344761305233402e-02 2.9683061747467045e-03  -1.2430431599238211e-01 1.6377939868456180e-02 9.8432198176681404e-02 1.6377939868456176e-02 2.0123123923895103e-01 -3.6462107938315100e-02 9.8432198176681404e-02 -3.6462107938315107e-02 -1.7332936958486991e-03  -1.0241404658725195e-01 -8.0444876215989003e-02 1.1015046434390392e-01 -8.0444876215989017e-02 1.5378557472518908e-01 -8.5483517823188131e-03 1.1015046434390392e-01 -8.5483517823188165e-03 1.6961035884706120e-02  -1.2902004154268917e-02 -1.6070249744142964e-01 8.1652633593381985e-02 -1.6070249744142964e-01 5.6416958433676778e-02 3.1551363592599940e-02 8.1652633593381985e-02 3.1551363592599940e-02 2.4295760775729966e-02  1.0321575451068320e-01 -1.1991272435581750e-01 5.5864419984160613e-02 -1.1991272435581750e-01 -8.1343435559754901e-02 6.1663837054709299e-02 5.5864419984160613e-02 6.1663837054709299e-02 3.6695943554762321e-02  1.5442822352876412e-01 -2.7918583009624982e-02 3.1496228345470806e-02 -2.7918583009624982e-02 -1.2886078178018998e-01 9.1542000085835254e-02 3.1496228345470806e-02 9.1542000085835268e-02 3.5969484391408887e-02  1.3634000299479784e-01 6.7630379912898095e-02 -1.0713708133921510e-02 6.7630379912898109e-02 -1.0703926768362322e-01 1.1346402896576512e-01 -1.0713708133921510e-02 1.1346402896576513e-01 3.6755165058502730e-02  5.2480223102428815e-02 1.2603447046448729e-01 -4.1522461534487125e-02 1.2603447046448729e-01 -4.7099187939457783e-05 1.0754087115744108e-01 -4.1522461534487125e-02 1.0754087115744108e-01 7.3039453851368409e-03  -4.7963546418448660e-02 1.1592082868167902e-01 -7.4712566446437423e-02 1.1592082868167902e-01 1.0408197662008793e-01 8.6714906353732385e-02 -7.4712566446437423e-02 8.6714906353732385e-02 7.9875738344464334e-03  -1.2762026151117076e-01 2.4338252890891343e-03 5.6497169726903600e-02 2.4338252890891343e-03 7.1032327803889725e-02 4.4773252305094803e-03 5.6497169726903600e-02 4.4773252305094812e-03 9.1269755477100131e-02  -1.3031730892861537e-01 -8.4079106295663654e-03 5.8091653028015833e-02 -8.4079106295663654e-03 1.2483551523373904e-01 -3.0016527607329242e-03 5.8091653028015833e-02 -3.0016527607329246e-03 4.7170489460537382e-02  -1.5438624894033134e-01 -1.5902162816273196e-02 5.0293566887093299e-02 -1.5902162816273196e-02 1.3562310849382903e-01 9.4250109418903185e-03 5.0293566887093299e-02 9.4250109418903220e-03 7.3396928769357106e-02  -1.7829372441000030e-01 -1.4003817528761328e-02 1.0069222842094411e-02 -1.4003817528761328e-02 1.5918380424473924e-01 2.5919560560718986e-02 1.0069222842094412e-02 2.5919560560718990e-02 8.5323186249237334e-02  -1.7498818642582953e-01 -4.0710014268528771e-04 -3.2645163970215912e-02 -4.0710014268528771e-04 1.7702763808779801e-01 5.2391148194790828e-02 -3.2645163970215912e-02 5.2391148194790828e-02 6.9124415311628551e-02  -1.6146162136428005e-01 -2.2802908811341314e-02 -4.1668617280178954e-02 -2.2802908811341314e-02 1.9734881233783480e-01 5.9486924726570675e-02 -4.1668617280178948e-02 5.9486924726570675e-02 3.5824146972480889e-02  -1.6289955952348972e-01 -1.4184151862478116e-02 -3.5844559067233772e-02 -1.4184151862478116e-02 1.9463892465270524e-01 7.2045291764852151e-02 -3.5844559067233779e-02 7.2045291764852151e-02 4.0581387453501636e-02  -1.7271846695524373e-01 2.2609161143166977e-02 -4.5515238653945272e-02 2.2609161143166977e-02 1.9015544140871113e-01 5.7488558970740622e-02 -4.5515238653945272e-02 5.7488558970740622e-02 5.8831791374702777e-02  -1.4164065643089702e-01 3.9765298582312439e-02 -8.7229667394011015e-02 3.9765298582312432e-02 1.8243817398535128e-01 6.2807821256866639e-02 -8.7229667394011015e-02 6.2807821256866639e-02 3.5286725719288342e-02  -8.3788472869971709e-02 7.9775308989154074e-03 1.0549030968120264e-01 7.9775308989154074e-03 7.1402614820447116e-03 -4.9173808643138903e-02 1.0549030968120264e-01 -4.9173808643138903e-02 1.2593715195942123e-01  -5.9414008592881436e-02 2.6458571183502304e-02 8.5930826544138236e-02 2.6458571183502304e-02 -1.2769288184187813e-02 -7.8958724275207906e-02 8.5930826544138236e-02 -7.8958724275207920e-02 1.1800690806294166e-01  -4.6767991099598220e-02 5.3652441042954947e-02 6.4068925442966787e-02 5.3652441042954947e-02 -3.5850338834859427e-02 -8.9597482123151911e-02 6.4068925442966787e-02 -8.9597482123151911e-02 1.3253154762136096e-01  -1.3835283606268891e-02 3.2323377641874394e-02 2.7689156933829683e-02 3.2323377641874394e-02 -5.5684547132838040e-02 -1.0763644500671452e-01 2.7689156933829697e-02 -1.0763644500671452e-01 1.1745921948443566e-01  -3.2928158855032979e-04 2.3230662298855766e-02 1.1594657809612566e-02 2.3230662298855766e-02 -8.3495002764328460e-02 -1.1197592440654412e-01 1.1594657809612566e-02 -1.1197592440654412e-01 1.3790185185901377e-01  2.1669557968875988e-03 -2.5422945879196301e-03 -3.2630923875841350e-02 -2.5422945879196301e-03 -8.0804084856288691e-02 -1.0935442262671628e-01 -3.2630923875841350e-02 -1.0935442262671628e-01 1.3273576669738124e-01  4.5450349214276650e-03 -2.3286584656568150e-02 -5.4948668862926604e-02 -2.3286584656568150e-02 -7.4337761742935424e-02 -1.0080646823591524e-01 -5.4948668862926604e-02 -1.0080646823591524e-01 1.1594781673304048e-01  -2.2646416385579508e-02 -3.9345747351153620e-02 -1.1060830371303307e-01 -3.9345747351153620e-02 -3.4696713539614371e-02 -6.1538495994146541e-02 -1.1060830371303307e-01 -6.1538495994146541e-02 1.0904954031761101e-01  -5.5990449996235897e-02 -3.1782051987496736e-02 -1.3255441227474324e-01 -3.1782051987496736e-02 -1.7873400683393863e-02 -1.4023410758279309e-02 -1.3255441227474324e-01 -1.4023410758279309e-02 1.2819365625568072e-01  4.0345147010652165e-02 1.9556732636409550e-02 2.2471675505563699e-02 1.9556732636409550e-02 -3.9811500187904678e-02 3.7191008190283363e-02 2.2471675505563699e-02 3.7191008190283363e-02 6.8243261178670663e-03  3.9885937886156381e-02 3.8994301027171767e-02 1.7449892059241221e-02 3.8994301027171767e-02 -4.1895568674881138e-02 4.2898299979421177e-02 1.7449892059241221e-02 4.2898299979421177e-02 1.2368053299370057e-02  -2.6130974114283020e-03 4.1479283251200587e-02 2.9985301508530641e-03 4.1479283251200587e-02 -1.0479401417528036e-02 4.4082065098219145e-02 2.9985301508530632e-03 4.4082065098219145e-02 1.9543545017785959e-02  -2.4419972772613974e-02 4.7027695099900069e-02 -3.0307522578274442e-02 4.7027695099900069e-02 3.9200735078157259e-02 3.6820302011939900e-02 -3.0307522578274442e-02 3.6820302011939900e-02 -4.9988485241237645e-03  -4.2661691258795778e-02 3.0325529752940582e-02 -3.1905943574867861e-02 3.0325529752940582e-02 6.4180375612914217e-02 3.1012250771951126e-02 -3.1905943574867861e-02 3.1012250771951126e-02 -1.0748169715636142e-02  -4.6572117644188810e-02 1.2563301967993551e-02 -3.3279931880746495e-02 1.2563301967993542e-02 5.7554779420412504e-02 1.8236555817328640e-02 -3.3279931880746502e-02 1.8236555817328640e-02 -2.6015487748080064e-03  -4.0525585900996156e-02 -1.0420010420341295e-02 -4.1687882063938905e-02 -1.0420010420341302e-02 5.2580067004011653e-02 4.6179823812498222e-03 -4.1687882063938926e-02 4.6179823812498222e-03 -3.6058795341165884e-03  -2.8525734672254287e-02 -4.3110659884898060e-02 -3.3481226447172233e-02 -4.3110659884898060e-02 5.1103092216239931e-02 -4.8866772078027610e-03 -3.3481226447172240e-02 -4.8866772078027618e-03 -1.3519302647555447e-02  -1.9822406746852626e-02 -4.7340862059464646e-02 -4.5118878415514305e-02 -4.7340862059464646e-02 1.6440532232644231e-02 1.4802906228376916e-02 -4.5118878415514312e-02 1.4802906228376916e-02 1.0992704257761263e-02  3.2821888430909545e-02 -1.2501723159535367e-02 -5.4640629416683011e-02 -1.2501723159535370e-02 -4.9641316710926982e-02 3.6045174702663491e-03 -5.4640629416683011e-02 3.6045174702663508e-03 2.1014162527505421e-02  7.9291760223166793e-02 -1.1280507777814945e-02 -4.8528359849380816e-02 -1.1280507777814940e-02 -6.7874596624777239e-02 -3.2085708448895141e-02 -4.8528359849380816e-02 -3.2085708448895141e-02 3.7116456803402047e-03  1.2524832682293030e-01 -2.5530713431380983e-02 -4.5261598469138943e-02 -2.5530713431380983e-02 -1.2102980587031083e-01 -6.1191610758406047e-02 -4.5261598469138943e-02 -6.1191610758406047e-02 4.0112081775639671e-02  1.2010016608736596e-01 -1.6682669487543916e-02 -4.4684906469174744e-02 -1.6682669487543916e-02 -7.8892997440289880e-02 -1.0306954627135215e-01 -4.4684906469174744e-02 -1.0306954627135215e-01 7.1856880290082767e-03  9.5670587604988366e-02 -3.4659051346589598e-03 -2.2542293959465651e-02 -3.4659051346589589e-03 -5.1840970582672272e-02 -7.4893778770269023e-02 -2.2542293959465651e-02 -7.4893778770269023e-02 -2.0459480069551159e-02  8.5236483340323313e-02 5.5105087820289146e-03 -1.2503260056937330e-02 5.5105087820289137e-03 -6.6306192502220057e-02 -4.6102018156278735e-02 -1.2503260056937339e-02 -4.6102018156278735e-02 -3.9893549185428456e-03  6.9315440611963319e-02 -1.3217917073812547e-02 -3.1855591763168954e-02 -1.3217917073812544e-02 -8.8913545372568001e-02 -3.1148605838040723e-02 -3.1855591763168954e-02 -3.1148605838040723e-02 3.8200056579594126e-02  5.0645819006222177e-02 -2.0930417453399162e-02 -2.4596389811937808e-02 -2.0930417453399162e-02 -7.8485268061576685e-02 -1.5164156887251829e-02 -2.4596389811937805e-02 -1.5164156887251829e-02 4.0197203918532279e-02  3.5128833626122895e-02 -1.9863641776444067e-02 -4.1845172580572340e-03 -1.9863641776444067e-02 -5.2289355604667069e-02 1.2772358541604339e-02 -4.1845172580572340e-03 1.2772358541604337e-02 2.0923612666502681e-02  2.1078600593689489e-02 -4.7854277881966327e-02 8.0593678261588250e-03 -4.7854277881966327e-02 -3.6520430153524880e-02 6.1007376803644195e-02 8.0593678261588250e-03 6.1007376803644195e-02 2.8749827525965117e-02  2.5361414905305066e-02 -3.2611586532488621e-02 -1.8112899468235546e-02 -3.2611586532488621e-02 -6.0449675448546979e-02 8.5627846022754778e-02 -1.8112899468235546e-02 8.5627846022754778e-02 5.9311415374051706e-02  1.3926104155215046e-02 1.1291370320568820e-02 -2.5355785702665539e-02 1.1291370320568817e-02 -1.6388723172543682e-02 6.2223608790886294e-02 -2.5355785702665539e-02 6.2223608790886294e-02 6.7496131955854695e-03  1.4033221329789149e-02 5.2843729767868769e-03 -1.6809557077583564e-02 5.2843729767868769e-03 -1.2701586740190781e-02 6.1024602373813304e-02 -1.6809557077583564e-02 6.1024602373813304e-02 1.0784810865426769e-03  2.2741425755863586e-02 -6.3053248866702912e-03 -3.2918244230043746e-03 -6.3053248866702912e-03 -2.0887990652518687e-02 5.7028773544465824e-02 -3.2918244230043746e-03 5.7028773544465824e-02 -1.0706081509740958e-04  2.5186579382461827e-02 -1.4280359663450936e-02 1.0451077364342825e-02 -1.4280359663450936e-02 -1.6606696781100914e-02 5.2481169801987373e-02 1.0451077364342825e-02 5.2481169801987373e-02 -5.2269010755502431e-03  1.9919273789764692e-02 -9.6258006678450209e-03 2.3056771703369519e-02 -9.6258006678450209e-03 -1.1519633941296514e-02 5.3813120365504528e-02 2.3056771703369519e-02 5.3813120365504528e-02 -5.8860656756094922e-03  3.3361456872882479e-02 -6.2423230918347743e-03 1.2769688616171910e-02 -6.2423230918347743e-03 1.4032587780885089e-03 4.2384133469859211e-02 1.2769688616171920e-02 4.2384133469859198e-02 -3.3546211098248908e-02  3.8710229354508144e-02 -1.6142847923936485e-02 2.2231146792040832e-02 -1.6142847923936485e-02 5.2351991597200734e-03 2.2681536807097717e-02 2.2231146792040832e-02 2.2681536807097724e-02 -4.1131913762842781e-02  1.4647642531413414e-02 -2.4838608061406201e-02 3.7767147433173213e-02 -2.4838608061406201e-02 1.3001779871675164e-02 2.6471697533723276e-02 3.7767147433173213e-02 2.6471697533723276e-02 -2.2522693933756641e-02  1.2598677277266122e-02 -2.7462701682822877e-02 3.4586206841779238e-02 -2.7462701682822877e-02 2.8787129910993043e-02 9.6216990360549481e-03 3.4586206841779238e-02 9.6216990360549516e-03 -3.6687483543507121e-02  4.7650432532745620e-03 -2.6386204042629768e-02 3.7535302365146982e-02 -2.6386204042629764e-02 3.9008084404545007e-02 5.6662024177505364e-04 3.7535302365146982e-02 5.6662024177505440e-04 -3.8962421333198924e-02  -8.9294529241225433e-03 -1.4243163866543061e-02 3.5711716513437110e-02 -1.4243163866543061e-02 4.3776108410899933e-02 -5.3145598666568773e-03 3.5711716513437110e-02 -5.3145598666568799e-03 -3.0383980479544208e-02  -1.3783127571242596e-02 2.6580071780111531e-03 3.9064792505029693e-02 2.6580071780111531e-03 3.3525932458588197e-02 -1.0204490621056213e-02 3.9064792505029693e-02 -1.0204490621056213e-02 -1.5509431111959900e-02  1.6246049252709492e-03 3.8418691026347283e-03 2.5835428516388953e-02 3.8418691026347283e-03 3.6582584844740182e-02 -1.5996943333672502e-02 2.5835428516388950e-02 -1.5996943333672502e-02 -3.5613794037734903e-02  9.3263982650758793e-03 -1.9200427858033928e-02 -8.6685252433369667e-03 -1.9200427858033928e-02 4.3036243218855359e-02 -2.8903916735326111e-02 -8.6685252433369737e-03 -2.8903916735326121e-02 -4.9305876416901512e-02  -9.0673935032227378e-03 1.6664828480707730e-02 1.9743821007543440e-02 1.6664828480707730e-02 2.8103066465671594e-02 -2.2677063123402307e-02 1.9743821007543433e-02 -2.2677063123402310e-02 -1.6017385442853405e-02  3.4691203954955049e-02 -2.0184998287753417e-02 2.7136519269519346e-02 -2.0184998287753417e-02 -4.7766949505753359e-02 1.3700735794677531e-02 2.7136519269519346e-02 1.3700735794677531e-02 1.9338034296918924e-02  4.3363925782610321e-02 -1.9863016836294593e-02 2.8364663068609373e-02 -1.9863016836294593e-02 -5.5366731950138096e-02 -1.0660445206988962e-04 2.8364663068609373e-02 -1.0660445206989199e-04 1.8237743558973982e-02  5.4648827452847513e-02 -4.3750281823557884e-02 3.1906889615125097e-02 -4.3750281823557884e-02 -7.6035545706452740e-02 -6.0147825373002128e-03 3.1906889615125097e-02 -6.0147825373002119e-03 3.6511638984729915e-02  7.5177875565277635e-02 -3.9859007940390913e-02 3.9365366919795655e-02 -3.9859007940390913e-02 -1.0123996950852802e-01 8.8465409778973846e-03 3.9365366919795655e-02 8.8465409778973880e-03 5.1240827036182900e-02  6.9717692426247327e-02 -3.7214202629714380e-02 3.5040754233137732e-02 -3.7214202629714380e-02 -9.7339293797826021e-02 1.4988628447767622e-02 3.5040754233137732e-02 1.4988628447767627e-02 5.0929688117940658e-02  6.0197748467220771e-02 -2.4720636979678714e-02 2.4046674397436192e-02 -2.4720636979678714e-02 -9.1149248522911397e-02 1.2518519043780263e-02 2.4046674397436192e-02 1.2518519043780263e-02 4.8041318208322366e-02  4.2843342188929191e-02 -2.1638767239758543e-02 1.5194670760381704e-02 -2.1638767239758543e-02 -7.6096835421037026e-02 4.5904058680166478e-03 1.5194670760381704e-02 4.5904058680166478e-03 4.4346406470800445e-02  2.8048287535495563e-02 -1.9980683790790522e-02 3.0041904450020179e-02 -1.9980683790790522e-02 -5.3615074335746339e-02 -1.0121146223457857e-02 3.0041904450020182e-02 -1.0121146223457859e-02 3.1371791211635476e-02  2.5636497135250465e-02 2.3246099835814722e-04 4.3830942818932767e-02 2.3246099835814722e-04 -1.2111112255464442e-02 3.7238467216982210e-03 4.3830942818932767e-02 3.7238467216982210e-03 -1.0836837597529079e-02  8.6540974947428378e-02 3.8074792547007158e-02 -2.3323858689630234e-02 3.8074792547007158e-02 -7.2881241330320035e-02 -3.5271513955460194e-02 -2.3323858689630238e-02 -3.5271513955460194e-02 2.3697176413093567e-03  6.6987080048856965e-02 9.6208475192262680e-02 5.6820914780626695e-03 9.6208475192262680e-02 -4.2894107431304333e-02 -4.3857687095849932e-02 5.6820914780626695e-03 -4.3857687095849918e-02 2.3442823875068769e-03  1.9610881882241787e-02 9.6745263148594329e-02 4.7710248851698450e-03 9.6745263148594329e-02 -1.2548084571302690e-02 -3.7654863432758083e-02 4.7710248851698450e-03 -3.7654863432758069e-02 1.1889931690097923e-02  -4.1984063568341862e-02 8.7805188681141844e-02 2.3868533987469080e-02 8.7805188681141844e-02 4.1710322558610333e-02 -3.3273718598228003e-02 2.3868533987469086e-02 -3.3273718598228003e-02 2.0070725712373814e-02  -6.4064928282944217e-02 5.0128958126923535e-02 2.0858771779126754e-02 5.0128958126923535e-02 5.0017652581887291e-02 -3.1920179722386928e-02 2.0858771779126754e-02 -3.1920179722386928e-02 2.7705981458917457e-02  -5.7386784344223812e-02 1.7928592484322339e-02 2.7653707984887432e-02 1.7928592484322339e-02 6.0490427012425518e-02 -1.6900329911738350e-02 2.7653707984887432e-02 -1.6900329911738350e-02 5.3525957714571758e-03  -4.3733483350842532e-02 -1.2746123880603297e-02 3.0232652149844809e-02 -1.2746123880603300e-02 4.7058379170962325e-02 -1.1711116574932571e-02 3.0232652149844812e-02 -1.1711116574932571e-02 1.7579789491218197e-03  -4.0727968455132796e-02 -1.9547683495689000e-02 1.4981492679125071e-02 -1.9547683495689000e-02 3.3135027775054525e-02 -1.2573970988589605e-0