<?xml version="1.0"?>
<VTKFile type="UnstructuredGrid"  version="0.1"  >
<UnstructuredGrid>
<Piece  NumberOfPoints="1268" NumberOfCells="4847">
<Points>
<DataArray  type="Float64"  NumberOfComponents="3"  format="ascii">1.994716987487452 0.01317707561264319 -1.202466945460223e-11  1.374072606111497 -0.08614134488653273 -5.388997575085332  -1.285941478930618 0.1916557790035214 -5.691288663606836  -1.59032616235459 -0.4515196446136259 1.626303258728257e-17  0.4950030257755884 2.521650519233041 -5.495391852657774  -0.4107718940653654 -2.429115409112172 -5.58531208084276  -0.9314707163843408 -3.006923447963563 4.87890977618477e-17  1.161824811771535 2.948440156756841 -3.391384395534658e-14  2.146749234505421 0.002696741478414759 -0.5615078450779066  2.330988047973839 -0.000873250973709995 -1.113141311680313  2.540713632977715 -0.1384292375506191 -1.637427654548237  2.645241452520652 -0.2872312815961211 -2.18637082393926  2.504842461151312 -0.2752146673621067 -2.746850782899552  2.287876352721185 -0.2088259978706829 -3.283011632728322  2.137771360922677 -0.2093380261300688 -3.844996501809416  1.970142554575494 -0.2193701374385486 -4.401638277082749  1.701580801829277 -0.1696632515169769 -4.915066532844666  1.398049690886424 0.4419377546899956 -5.387643705321969  1.183972204621215 0.9208338616597355 -5.413149504812257  0.7621482426349403 1.234356207118232 -5.461782499987256  0.2539805730796886 1.370727420898931 -5.519751404145364  -0.2689415860383004 1.319053689498898 -5.578906487138381  -0.7357170559581984 1.076180709179107 -5.631191713357971  -1.086003096318238 0.6812820615514149 -5.669884670156524  -1.65706961757681 -0.5275128747266272 -0.6240725009925172  -1.829082870387909 -0.8347372240299333 -1.153553189134448  -2.030635262011336 -1.097965926806997 -1.693320688638939  -2.148557703924963 -0.9683820133813712 -2.295450526931833  -2.119047321408695 -0.7521727279271558 -2.890676896601294  -1.972500555455803 -0.7106310836492745 -3.509380855831461  -1.885028119342598 -0.4902108162504233 -4.093718100793141  -1.832050776792238 -0.1313823297003599 -4.617858136599065  -1.636180550340053 0.1151199882480144 -5.165527944859976  -1.540434086810702 0.1014447694855235 -7.644826989049428e-17  -1.339902801239663 0.6191128040412099 2.218327606354497e-17  -0.9949589579071262 1.053322092476122 2.12059320661159e-17  -0.5243975458638882 1.346285776146202 7.754217898549941e-16  0.01399251627036286 1.481823287560149 3.252316763596149e-17  0.5696211504784076 1.47677978548424 -7.207855520904863e-17  1.105448032340458 1.331487337928338 1.951563910473908e-16  1.561367740818086 1.018090979386763 -2.179459114756194e-16  1.860006992193919 0.551530302300456 1.369433074745588e-16  -0.152869286718376 2.506583809965366 -5.568804938302105  -0.7781210310064858 2.335338381675429 -5.639249366957451  -1.340550096787874 2.011723800088065 -5.702178028336585  -1.803922993566052 1.555830170950866 -5.753534898075912  -2.144678763029901 1.000979069722826 -5.790734833138769  -2.346903237737564 0.3811866585909049 -5.812061421922149  -2.406990243842066 -0.2684488461825228 -5.817196438260218  -2.318433628103212 -0.9144163570965761 -5.805488779558074  -2.059391262210163 -1.511004864267824 -5.774580158166454  -1.615755841275718 -1.983465489741105 -5.72306417450185  -1.043145925381342 -2.287058241276404 -5.657361969815248  -0.6986882361605687 -2.420627649803484 -5.024556445072709  -0.8272574030199392 -2.685291244074475 -4.476216325063944  -0.8113210073272845 -3.118860027310894 -4.01596683617901  -0.7618552434953355 -3.481598098596065 -3.504026669625047  -0.7509882165597778 -3.609083979854663 -2.886473298216772  -0.7986167670519319 -3.732483084086931 -2.268445488219849  -0.8276969497603353 -3.810997815301134 -1.64593496945388  -0.7425506523451623 -3.557242155569485 -1.078322423839125  -0.7147449622328144 -3.21189056194362 -0.5511080601316157  -1.482234509376526 -2.778582553401298 -5.854479658363816e-16  -1.970737176894139 -2.437284655419533 2.764697292186607e-16  -2.362818572203899 -1.988727212877528 2.439101268600111e-16  -2.642390785384022 -1.462244173776716 5.051059276813266e-16  -2.812149102113852 -0.89052423419162 2.276851973687203e-16  -2.877946727920729 -0.2976446157883296 -1.219909928720168e-16  -2.842947107925845 0.2978601752284433 4.065446096494693e-17  -2.70313036896374 0.8776122116387211 -5.041496169361013e-16  -2.452324348076021 1.418519584933707 4.379274460317988e-16  -2.098265626135573 1.898294456130726 1.951060033519619e-16  -1.658391347368763 2.301023318502569 -1.789574489620802e-16  -1.154148079923361 2.619757341302747 -2.081203863085907e-15  -0.6042202207747882 2.851073703499478 -3.577841418755692e-16  -0.02416138323675775 2.990516581461941 4.065982498622179e-16  0.5710641261211448 3.028216945076794 -1.46882551317968e-16  0.6414151130412097 2.696325287154043 -4.983333021490838  0.771852374565919 2.778456367279237 -4.445188759107248  0.8805845204306011 2.73078881179073 -3.897720120696569  0.9481597620953167 2.69798349057175 -3.343104559074628  0.9815370707090804 2.778214865778854 -2.789250505759619  1.013475345489448 2.861817704396183 -2.235671116027784  1.055849759321274 2.898356228459238 -1.677594140621302  1.093646323460014 2.92793989028903 -1.118725590781912  1.124098871622056 2.957526991478201 -0.5594169689370629  0.2477015793419729 -2.415655802610486 -5.510682951113449  0.8844491790088972 -2.245867158009595 -5.438931443942415  1.464891069119211 -1.932330028996181 -5.373934600293736  1.955087092649627 -1.489613175355717 -5.319502697776375  2.318355026965356 -0.937054784961175 -5.279744576064058  2.524994411863564 -0.307899182343253 -5.257941630215678  2.574632820450045 0.3531084349228537 -5.254020561031156  2.465743861849647 1.006614152640354 -5.268052816559671  2.183897076015212 1.604484044160622 -5.301550147358176  1.722560240631265 2.07491696755195 -5.35506775502591  1.13806318635062 2.378906583716481 -5.422118662603529  1.742182153284979 2.73179858498085 5.854691697147836e-16  2.262480931380501 2.395264875892136 -2.601681534737615e-16  2.698000706832733 1.954727370266727 -3.903113804560263e-16  3.021530388777258 1.426473918441798 1.707421408502106e-16  3.223363606607101 0.8405687193648443 -2.844806418042028e-16  3.305434793487241 0.2261994274297442 -4.472186606099012e-16  3.269241566985055 -0.3926051469820059 3.171555149681837e-16  3.113478077610213 -0.9924495549400153 3.510830505762065e-16  2.840400132149515 -1.548806515270482 -1.707368614952523e-16  2.466120284856568 -2.042983582774378 9.732831365154574e-17  2.008125599488538 -2.460814027017948 -3.577575055983979e-16  1.482521285196868 -2.789563899556613 -4.886146623064541e-17  0.9057866143556688 -3.01678997208197 -2.439392613813594e-16  0.2964958724913082 -3.130681163554852 3.414395345104792e-16  -0.32338307292875 -3.126978161260848 2.926910878106614e-16  -1.29067345658392 -0.3506098753383553 -5.690421630247788  -1.068897680254163 -0.8451623229646739 -5.663999894259847  -0.6782440885714781 -1.219621806060448 -5.6187489875115  -0.168757542531344 -1.390394566692369 -5.560546895724229  0.3611301401510615 -1.294122251639114 -5.500717901478111  0.8191548613516448 -1.005201308695582 -5.449538098373106  1.16817203978903 -0.5892762115769014 -5.411042670828763  1.960898302630318 -0.551652302616722 -8.131516293641286e-17  1.751009740180289 -1.077278642631261 7.445724005953314e-16  1.394016468000002 -1.516729095803803 1.136104663605282e-15  0.9227767039454898 -1.830301465573364 3.434443593283319e-16  0.3780412068884804 -1.984007749105097 8.617772484356591e-16  -0.1885780664025548 -1.977994130030172 2.357202029695971e-16  -0.7327557451871473 -1.821291124380143 1.942410916395698e-17  -1.191068596016128 -1.491774666596192 2.975009434367945e-16  -1.480405544894888 -1.006855825633415 6.954512630084263e-16  -1.812414118534285 0.2561131097252937 -2.664867827914479  2.421751940242729 0.6298287624476981 -1.933377861698098  0.7556418177061754 1.42269463362527 -4.617654324361507  0.003134751711410342 1.574821943356493 -0.9318675177876981  1.015098001669947 1.51699057942374 -0.9441494884276413  0.6193243625380082 1.764115149411371 -1.862230514405671  -0.4757031201037318 1.549728101933577 -1.958273018773558  0.1126459993007786 1.698838152590054 -2.957602797129454  -0.3405660022430232 1.569615851499001 -4.678135257405353  1.818199099779932 0.7365610114574719 -3.763003518505052  -0.9541815370276669 1.23451227632913 -2.875526912859068  -1.269464226480212 1.016489154450913 -4.672047638709048  1.301562892980348 1.557566760682666 -2.802482532053872  -0.7813756340336595 1.414221906310649 -3.725761628685261  -1.58370798409762 0.5643609111372817 -3.581008460136619  -0.988817348255397 1.158392548936659 -1.014254585170146  -1.607700527190565 0.2800106654898483 -1.030081240453645  -1.388203055800784 0.7951310659851955 -1.943712885648593  0.8261955720421881 1.570157055202129 -3.620947225245673  1.681455131778566 1.410849015379531 -1.876189895849114  1.878739160554727 0.943024132521903 -0.9866418074548234  2.103426639579445 1.000735947836943 -2.593434794762663  1.62623803052506 0.6468498306152269 -4.727220189271843  -1.882943490361709 -0.1546739965127431 -1.761716647663214  0.05868355051519467 1.656538949473053 -3.863342338366238  2.465845305360337 0.2632819454094029 -2.663569745038379  1.994842599423799 0.5019775153043848 -0.4779055074204815  2.1671824130763 0.4980244878585698 -1.027636182799239  1.710213566460811 0.9718796190568162 -0.4957578884333736  1.845584590132108 0.2253887364997403 -4.583879812097906  1.579035044615276 0.2924902970866011 -5.101748935835201  1.409777182251665 0.7868327264427526 -5.07202467441607  -1.039178737375989 1.089168173550246 -5.170746090958521  -1.377687418630729 0.6683636420802941 -5.233117919580046  -1.641402128985454 0.4875654733502939 -4.648722230221863  -1.765467255797776 -0.2695484060062747 -1.079683539430899  -1.617858736076732 -0.08318463488274264 -0.5123563299218489  -1.474019211051276 0.4496529111656123 -0.5150171376928306  2.417677350191343 0.3274903893149403 -1.506992657970159 
[...]
<PointData  Tensors="strain"> 
<DataArray  type="Float64"  Name="strain"  NumberOfComponents="9" format="ascii">-5.1504645320784234e-02 -9.2035536880271732e-03 -2.0542301913745012e-01 -9.2035536880271732e-03 7.0794550774373483e-03 -8.0053271213372627e-03 -2.0542301913745012e-01 -8.0053271213372627e-03 1.4425635006539675e-01  -1.5435931330004171e-01 3.5545018199437908e-02 1.1997815501518996e-01 3.5545018199437908e-02 2.8113910735682129e-01 -7.0311398736224953e-02 1.1997815501518996e-01 -7.0311398736224953e-02 4.6404867455460781e-03  -1.2613659410501993e-01 5.6811093367633909e-02 -1.3960025080112765e-01 5.6811093367633923e-02 2.7522406572919894e-01 7.3772320016775833e-02 -1.3960025080112765e-01 7.3772320016775847e-02 -1.2843865630552535e-02  -6.4193443220218707e-02 -3.1822585334560033e-02 1.8872123944079816e-01 -3.1822585334560033e-02 2.2763038065539897e-03 -4.3728014794791423e-02 1.8872123944079816e-01 -4.3728014794791423e-02 1.6237904835226200e-01  7.4456931662545522e-02 -6.2620652705686957e-03 4.3846761810054230e-02 -6.2620652705686992e-03 -7.0597958592784518e-02 3.5159231940850827e-02 4.3846761810054230e-02 3.5159231940850827e-02 1.2505564020106295e-02  1.3774154853851167e-01 -4.2163788634533112e-03 -4.3044872508045597e-02 -4.2163788634533121e-03 -1.1587592272163433e-01 -2.8434551564464530e-02 -4.3044872508045597e-02 -2.8434551564464530e-02 1.1979818674574991e-02  8.6542399456849203e-03 1.9714933074671408e-02 -5.1809550916688145e-02 1.9714933074671408e-02 -1.7583036716034985e-02 1.2113229393288906e-01 -5.1809550916688145e-02 1.2113229393288906e-01 3.6498377548213362e-02  3.9494201117889994e-03 2.4893111279581302e-02 4.5728749448689085e-02 2.4893111279581302e-02 3.9331349922069880e-02 -4.8059470233570371e-02 4.5728749448689085e-02 -4.8059470233570371e-02 -3.3819777140355653e-02  -1.6631297460872813e-01 -3.3259910813531503e-02 -1.1011742590075818e-01 -3.3259910813531503e-02 1.3683462974478941e-01 -5.9835657556616163e-02 -1.1011742590075818e-01 -5.9835657556616163e-02 1.2427894420039892e-01  -1.8672190658332385e-01 -4.1471891074977597e-02 -9.5154497084675563e-02 -4.1471891074977597e-02 1.9577779031194134e-01 -5.2022211269248074e-02 -9.5154497084675563e-02 -5.2022211269248074e-02 1.0311888820766146e-01  -2.1304125255626391e-01 -7.8539140821564640e-03 -8.3734954173162013e-02 -7.8539140821564657e-03 2.2082096082689132e-01 -2.9989929054134081e-02 -8.3734954173162013e-02 -2.9989929054134081e-02 1.1769052309788076e-01  -2.3280367687900327e-01 2.1988811473383874e-02 2.3743133822077497e-03 2.1988811473383871e-02 2.1311469843897934e-01 -4.9161507076919443e-02 2.3743133822077488e-03 -4.9161507076919443e-02 1.5295058101832668e-01  -2.0081635533350381e-01 -4.2978918967745139e-03 9.9325617255748733e-02 -4.2978918967745139e-03 2.6340424813855934e-01 -6.2820251910176497e-02 9.9325617255748705e-02 -6.2820251910176511e-02 7.6442076003489179e-02  -1.9108588187642209e-01 -4.0516863092446259e-02 8.7315625623962015e-02 -4.0516863092446259e-02 3.0161185159036091e-01 -2.1542493858041425e-02 8.7315625623962015e-02 -2.1542493858041429e-02 2.5338642540865590e-02  -2.0217228745646906e-01 -1.5674848194483545e-02 7.6914714187858904e-02 -1.5674848194483549e-02 3.1265655037527579e-01 -1.3632561204747557e-02 7.6914714187858904e-02 -1.3632561204747555e-02 2.8313944523666174e-02  -1.8623874807305707e-01 1.9421778648189222e-03 1.0228372994072334e-01 1.9421778648189222e-03 2.9553470193153036e-01 -3.7251675876066301e-02 1.0228372994072334e-01 -3.7251675876066301e-02 2.6145748714694116e-02  -1.5208124382032112e-01 2.4098351530632521e-02 1.3577435278947389e-01 2.4098351530632521e-02 2.8390040358838747e-01 -4.8530283107021406e-02 1.3577435278947389e-01 -4.8530283107021406e-02 7.4411361438118696e-03  -1.3077985079883828e-01 -1.1066192820415656e-01 1.4676939075958093e-01 -1.1066192820415656e-01 2.2709969250579093e-01 -1.5096816644160052e-02 1.4676939075958095e-01 -1.5096816644160054e-02 3.4847498882370417e-02  1.0970896948941627e-05 -2.1983172810878282e-01 1.1601581401885727e-01 -2.1983172810878282e-01 8.4698687530201211e-02 4.2674171380120543e-02 1.1601581401885729e-01 4.2674171380120543e-02 4.6942771367617160e-02  1.5973985371736540e-01 -1.6959086233829568e-01 8.7579529172909523e-02 -1.6959086233829568e-01 -1.0047478339367445e-01 8.6275120822011012e-02 8.7579529172909523e-02 8.6275120822011012e-02 6.4269978538877823e-02  2.2647550123411778e-01 -3.7864889409905407e-02 5.4577495092092740e-02 -3.7864889409905407e-02 -1.6815665777889799e-01 1.3039003152364315e-01 5.4577495092092761e-02 1.3039003152364317e-01 6.8589858240615628e-02  2.0180598611079500e-01 9.5584104191007560e-02 -6.5685302259987843e-03 9.5584104191007560e-02 -1.3196554722839007e-01 1.5901938557585985e-01 -6.5685302259987826e-03 1.5901938557585985e-01 6.1819189357756169e-02  8.6852314571038702e-02 1.8174580623928041e-01 -5.2700794547227571e-02 1.8174580623928041e-01 4.8984510927459765e-03 1.5183699654401250e-01 -5.2700794547227571e-02 1.5183699654401250e-01 3.2947112524728511e-02  -4.8214235634737264e-02 1.6544557244314428e-01 -1.0065685162155329e-01 1.6544557244314428e-01 1.5668969422916665e-01 1.2526966190809216e-01 -1.0065685162155329e-01 1.2526966190809219e-01 2.0774527299096412e-02  -1.7263537189228764e-01 -3.8903498589170703e-03 9.6485874416600559e-02 -3.8903498589170716e-03 1.1581801072285411e-01 1.0792049200808276e-02 9.6485874416600559e-02 1.0792049200808276e-02 1.3843767640913371e-01  -1.7579873843480071e-01 -2.1607406465083370e-02 9.1724151907959517e-02 -2.1607406465083370e-02 1.8938147542501302e-01 5.4046455397935402e-03 9.1724151907959517e-02 5.4046455397935402e-03 8.0804848075330782e-02  -2.0185989408573082e-01 -2.8748587777164422e-02 7.9860012618711562e-02 -2.8748587777164422e-02 1.9997349090689703e-01 2.3719811489458811e-02 7.9860012618711562e-02 2.3719811489458811e-02 1.1609438252112524e-01  -2.3064121582796498e-01 -1.8904433872842283e-02 1.6052397121965659e-02 -1.8904433872842279e-02 2.2613966252321238e-01 4.4297952008329984e-02 1.6052397121965663e-02 4.4297952008329984e-02 1.3274263621810931e-01  -2.2674035204749682e-01 -8.9895120585479148e-04 -3.9916721076373465e-02 -8.9895120585477446e-04 2.5208322283050610e-01 7.5474258632222901e-02 -3.9916721076373465e-02 7.5474258632222901e-02 1.0974194215621630e-01  -2.0957957638075334e-01 -2.5766802058625814e-02 -5.4683582311634261e-02 -2.5766802058625814e-02 2.8253651174543576e-01 8.5611385883687260e-02 -5.4683582311634261e-02 8.5611385883687247e-02 6.2040261858803875e-02  -2.1450835957386399e-01 -1.5654510623799994e-02 -4.4681521657453080e-02 -1.5654510623799998e-02 2.7957323391927635e-01 9.7755896656560939e-02 -4.4681521657453080e-02 9.7755896656560939e-02 7.1210876396261585e-02  -2.2021605089016766e-01 3.2050518829615016e-02 -5.8541036611754735e-02 3.2050518829615016e-02 2.6590526688135846e-01 8.4175811662638364e-02 -5.8541036611754735e-02 8.4175811662638392e-02 9.4846589239917858e-02  -1.8056226388712274e-01 4.8942203497529119e-02 -1.1367491774172060e-01 4.8942203497529119e-02 2.5967657440925390e-01 8.9043350971989496e-02 -1.1367491774172060e-01 8.9043350971989482e-02 6.2260713479079750e-02  -9.5653806258877483e-02 3.7042693801836901e-03 1.7899789808052258e-01 3.7042693801836901e-03 1.1870948142562725e-02 -5.9493280962245883e-02 1.7899789808052258e-01 -5.9493280962245883e-02 1.9078435044923600e-01  -7.4785114449482021e-02 3.0721406818789120e-02 1.5021549817033653e-01 3.0721406818789120e-02 -8.0288782102325307e-03 -1.1084627775188784e-01 1.5021549817033653e-01 -1.1084627775188784e-01 1.8660977266291956e-01  -5.7820381750298862e-02 6.1567414690280570e-02 1.2090633129405677e-01 6.1567414690280570e-02 -3.5198672335979245e-02 -1.3656840615902405e-01 1.2090633129405677e-01 -1.3656840615902405e-01 2.0221451849965585e-01  -1.7665071644731675e-02 4.2907902972589479e-02 6.4969287720029106e-02 4.2907902972589479e-02 -6.5633658115519883e-02 -1.6985430117071215e-01 6.4969287720029106e-02 -1.6985430117071215e-01 1.9361610731465423e-01  1.1032496094409121e-04 3.1013946563852104e-02 3.5896605239099377e-02 3.1013946563852104e-02 -9.4694264391137220e-02 -1.8030061475724862e-01 3.5896605239099370e-02 -1.8030061475724862e-01 2.1140287809584515e-01  3.7583228148528394e-03 5.5358788307283905e-04 -3.3765345818533472e-02 5.5358788307283905e-04 -9.5815215080643695e-02 -1.8521233437244761e-01 -3.3765345818533472e-02 -1.8521233437244761e-01 2.1308789686663054e-01  9.4658290096956144e-03 -2.2508052256132706e-02 -7.2374139209816238e-02 -2.2508052256132706e-02 -8.7503799955163608e-02 -1.7577952162466443e-01 -7.2374139209816238e-02 -1.7577952162466443e-01 1.8481086504613059e-01  -2.2159058438159188e-02 -4.9137576223959332e-02 -1.6096922347102560e-01 -4.9137576223959332e-02 -4.6656793347972202e-02 -1.2087740332077679e-01 -1.6096922347102560e-01 -1.2087740332077679e-01 1.8955547516201510e-01  -6.8152751814375731e-02 -4.0619989593403578e-02 -1.9943803077385969e-01 -4.0619989593403599e-02 -2.2850595134098678e-02 -5.5304665757448974e-02 -1.9943803077385969e-01 -5.5304665757448974e-02 2.1589050941622950e-01  6.0593456782346990e-02 2.9559860337407984e-02 3.0216890784484949e-02 2.9559860337407991e-02 -5.9977962744392987e-02 5.7453300700320925e-02 3.0216890784484949e-02 5.7453300700320904e-02 1.6542507155527339e-02  5.3721707789161403e-02 5.8125840224883124e-02 1.9985557605877047e-02 5.8125840224883124e-02 -5.2357060753854913e-02 6.2789981872178491e-02 1.9985557605877047e-02 6.2789981872178491e-02 1.9455972691126235e-02  6.5190281571737129e-03 6.5563040565617667e-02 2.6692398449716003e-04 6.5563040565617667e-02 -1.6765554228464871e-02 6.4888912049707106e-02 2.6692398449716046e-04 6.4888912049707106e-02 2.6482360583516936e-02  -2.5478650502073378e-02 7.0530193148505158e-02 -3.6097027340042560e-02 7.0530193148505158e-02 4.4739517628885513e-02 5.7871705863799139e-02 -3.6097027340042567e-02 5.7871705863799139e-02 1.3108369748652798e-03  -5.4832206400420601e-02 4.5639661809622104e-02 -4.6902559004085458e-02 4.5639661809622104e-02 8.0642047623064678e-02 5.1096307601407723e-02 -4.6902559004085458e-02 5.1096307601407723e-02 -3.8681931194490650e-03  -6.8976093280724349e-02 1.5072425487724500e-02 -5.5395450798832596e-02 1.5072425487724497e-02 8.3067637278241790e-02 3.5512370343301652e-02 -5.5395450798832596e-02 3.5512370343301652e-02 6.6628749296683363e-03  -6.1824301462341892e-02 -1.8331758762331962e-02 -6.8277546587948629e-02 -1.8331758762331962e-02 7.8776258818900213e-02 2.0948359732288205e-02 -6.8277546587948629e-02 2.0948359732288212e-02 5.2823817698891481e-03  -3.7933360709615158e-02 -6.2086157544834063e-02 -5.8451885322474313e-02 -6.2086157544834063e-02 6.5263241992206830e-02 8.8962295433088760e-04 -5.8451885322474313e-02 8.8962295433088923e-04 -7.9514281113315342e-03  -3.7471637195480795e-03 -7.6295634895552411e-02 -6.7302620322497897e-02 -7.6295634895552411e-02 8.9986134097206089e-03 1.3622743897808178e-02 -6.7302620322497897e-02 1.3622743897808178e-02 1.3233750260548993e-02  3.9407583311483974e-02 -2.7607433923177785e-02 -6.8872526281882104e-02 -2.7607433923177795e-02 -6.1041378125153860e-02 -8.4386464852825738e-03 -6.8872526281882104e-02 -8.4386464852825738e-03 3.1132123996390156e-02  1.0127788551735170e-01 -3.9020276846981693e-02 -5.8102804867166770e-02 -3.9020276846981707e-02 -8.9327499249509626e-02 -3.6139850750825583e-02 -5.8102804867166770e-02 -3.6139850750825583e-02 1.4954097499189056e-02  1.6643627711548406e-01 -3.3898162088323108e-02 -6.2308695778799494e-02 -3.3898162088323108e-02 -1.4982753025969520e-01 -7.9725933140862473e-02 -6.2308695778799508e-02 -7.9725933140862473e-02 5.8936637083626106e-02  1.6360156453356597e-01 -2.1247546396562966e-02 -5.6117605803233328e-02 -2.1247546396562962e-02 -9.4324766710846497e-02 -1.3007514240009130e-01 -5.6117605803233314e-02 -1.3007514240009130e-01 1.1439832674537848e-02  1.3341811502021358e-01 -2.5570202902972829e-03 -3.3294893102169508e-02 -2.5570202902972820e-03 -6.7468316369406658e-02 -1.0517367881195146e-01 -3.3294893102169501e-02 -1.0517367881195146e-01 -1.9940925574694599e-02  1.1433077980048378e-01 4.8313688000720728e-03 -2.3285440317243309e-02 4.8313688000720719e-03 -9.0574862924018992e-02 -6.7758094923625042e-02 -2.3285440317243323e-02 -6.7758094923625042e-02 5.6676819850833438e-03  9.5533884323106416e-02 -2.1049352456021461e-02 -4.5247643622918041e-02 -2.1049352456021461e-02 -1.2160461448363619e-01 -4.3845744790831809e-02 -4.5247643622918041e-02 -4.3845744790831809e-02 6.3170847627507562e-02  7.3718694615885608e-02 -2.5679201112697701e-02 -3.4795820006010336e-02 -2.5679201112697694e-02 -1.1400408826131743e-01 -2.2834433009154512e-02 -3.4795820006010336e-02 -2.2834433009154508e-02 6.7371150613163761e-02  4.7622763393128334e-02 -3.4056643054034288e-02 -7.1862114392420668e-03 -3.4056643054034295e-02 -7.6748969828170796e-02 2.6188177849121551e-02 -7.1862114392420668e-03 2.6188177849121551e-02 3.9689320680958290e-02  3.2715410930025411e-02 -6.3810399291065120e-02 1.7139523389878306e-03 -6.3810399291065120e-02 -5.9205862517823012e-02 9.1699313934816160e-02 1.7139523389878310e-03 9.1699313934816160e-02 5.7560644816334612e-02  3.7326915882500179e-02 -4.6075402041186937e-02 -2.0393055215205173e-02 -4.6075402041186937e-02 -8.4627523148938469e-02 1.1995535759056969e-01 -2.0393055215205177e-02 1.1995535759056969e-01 9.6775434921666043e-02  1.6212780611639974e-02 1.3020695192996362e-02 -2.8117157460527287e-02 1.3020695192996364e-02 -2.2285737074007266e-02 1.1395895665666221e-01 -2.8117157460527287e-02 1.1395895665666221e-01 2.4577875016190368e-02  2.0212103728528885e-02 5.6122038289662659e-03 -1.0327535945300699e-02 5.6122038289662659e-03 -2.2837161130803897e-02 1.0497609228873230e-01 -1.0327535945300699e-02 1.0497609228873230e-01 1.4756857200488289e-02  2.5361299577925336e-02 -8.4673290544400783e-03 1.2828017257369966e-02 -8.4673290544400800e-03 -2.7205411373910828e-02 1.0264076322437753e-01 1.2828017257369966e-02 1.0264076322437753e-01 1.4305250333611470e-02  3.0070385901011042e-02 -1.9981442570662127e-02 2.9570463436577030e-02 -1.9981442570662131e-02 -2.1488102548191192e-02 9.1471549241182684e-02 2.9570463436577030e-02 9.1471549241182684e-02 4.6707623088948066e-03  2.3903523464161650e-02 -1.7629491461461068e-02 4.7330673110412523e-02 -1.7629491461461068e-02 -1.6400567965275042e-02 8.5741282314785311e-02 4.7330673110412523e-02 8.5741282314785311e-02 3.0341925563009799e-03  4.4510557648296624e-02 -1.1152074848721077e-02 3.7465393238106416e-02 -1.1152074848721081e-02 5.4485298380689334e-04 6.4136990263989738e-02 3.7465393238106423e-02 6.4136990263989738e-02 -4.0616842544270122e-02  4.8734651546865709e-02 -1.8017835997746957e-02 4.9494605990634093e-02 -1.8017835997746961e-02 4.5288144262536347e-03 3.7841300733409071e-02 4.9494605990634093e-02 3.7841300733409071e-02 -4.7672935481047000e-02  1.7886563184542060e-02 -3.3949099990081444e-02 7.2672509087998535e-02 -3.3949099990081444e-02 1.9012046604084964e-02 3.7191712440380796e-02 7.2672509087998535e-02 3.7191712440380796e-02 -2.3455574474857740e-02  1.9774638808579843e-02 -3.6598530248446129e-02 6.6495424768736849e-02 -3.6598530248446129e-02 3.8098850656208522e-02 1.1103092104780762e-02 6.6495424768736849e-02 1.1103092104780762e-02 -4.6900913815130466e-02  6.3131019148366567e-03 -3.5838744397982653e-02 7.0200527506510554e-02 -3.5838744397982653e-02 5.4509996356748684e-02 -2.8948703491400229e-05 7.0200527506510554e-02 -2.8948703491400229e-05 -4.8600867274524381e-02  -1.4541281186043331e-02 -2.0238828685910558e-02 6.5280538705404470e-02 -2.0238828685910558e-02 6.2129699523551594e-02 -1.8045130713616707e-02 6.5280538705404442e-02 -1.8045130713616707e-02 -3.6284992270795083e-02  -2.0752240836598025e-02 4.7065093464816197e-03 6.6719238583084164e-02 4.7065093464816197e-03 4.9960626063400772e-02 -2.8311117187973984e-02 6.6719238583084164e-02 -2.8311117187973984e-02 -1.7145235425767257e-02  3.5360723914462755e-03 6.9800379170069761e-03 4.2975714149223604e-02 6.9800379170069761e-03 5.5686021222384342e-02 -3.4780612692177533e-02 4.2975714149223604e-02 -3.4780612692177533e-02 -5.1887148983128975e-02  1.2262922951482779e-02 -2.8824006879149530e-02 -1.3017768250924631e-02 -2.8824006879149530e-02 6.5156576649555251e-02 -5.4790090752556572e-02 -1.3017768250924631e-02 -5.4790090752556572e-02 -7.0996553022063646e-02  -1.3288034901635666e-02 2.4842961831675545e-02 3.2322524664902971e-02 2.4842961831675545e-02 4.1098861520335282e-02 -4.7120070931144800e-02 3.2322524664902971e-02 -4.7120070931144800e-02 -1.8988856591038359e-02  5.9338017159474989e-02 -3.0598491671837199e-02 4.2443034052912068e-02 -3.0598491671837199e-02 -7.7172479434713212e-02 2.2683887168622876e-02 4.2443034052912075e-02 2.2683887168622879e-02 3.4935879005896044e-02  6.5693925161986008e-02 -3.2747915140179225e-02 4.3050996277141880e-02 -3.2747915140179225e-02 -8.5649945105869374e-02 3.5277514375627664e-05 4.3050996277141873e-02 3.5277514375619363e-05 3.6197386687817946e-02  8.0048867882742444e-02 -5.8561150207638794e-02 5.0119122196425218e-02 -5.8561150207638794e-02 -1.0988964351673924e-01 -9.1451661172978708e-03 5.0119122196425218e-02 -9.1451661172978708e-03 6.2610563062841934e-02  1.0811053268404078e-01 -5.4990917915735030e-02 5.4075152580124929e-02 -5.4990917915735016e-02 -1.3563395662042504e-01 1.1881311589937851e-02 5.4075152580124929e-02 1.1881311589937851e-02 7.6651998068384783e-02  9.9261639604356758e-02 -4.9146787897594635e-02 5.1981184678261724e-02 -4.9146787897594621e-02 -1.3058886455846111e-01 2.2087513614264125e-02 5.1981184678261724e-02 2.2087513614264125e-02 7.6878262562404986e-02  8.9485245109919676e-02 -3.5264992465297580e-02 4.0473911610969783e-02 -3.5264992465297580e-02 -1.2922326585796906e-01 1.8811162040207038e-02 4.0473911610969783e-02 1.8811162040207038e-02 7.7818454735787815e-02  6.5599838929183779e-02 -2.9497912215822771e-02 2.7655038948519558e-02 -2.9497912215822771e-02 -1.1716438571708182e-01 8.0940389833025501e-03 2.7655038948519558e-02 8.0940389833025501e-03 8.0284398714269567e-02  4.1942290636551312e-02 -2.6867668261240867e-02 5.2009780469826086e-02 -2.6867668261240867e-02 -9.5687867804303745e-02 -1.0282039621788287e-02 5.2009780469826086e-02 -1.0282039621788287e-02 7.3515863826647432e-02  3.6348587978516644e-02 -8.6676213593139019e-03 6.1089639135244816e-02 -8.6676213593139019e-03 -2.4900055856537925e-02 -2.0849924281543968e-03 6.1089639135244816e-02 -2.0849924281543968e-03 -7.7360428861918207e-03  1.2047050060291425e-01 4.5933512382332550e-02 -3.3434733680511822e-02 4.5933512382332550e-02 -1.0691459114460225e-01 -5.3764696510154281e-02 -3.3434733680511829e-02 -5.3764696510154281e-02 2.0229653911252161e-02  9.9464871751244591e-02 1.1414347929008373e-01 -6.6120654574777105e-03 1.1414347929008373e-01 -7.4525441701741704e-02 -5.9704935804263413e-02 -6.6120654574777114e-03 -5.9704935804263413e-02 1.9106658462242666e-02  2.6904925741791420e-02 1.2815982946188953e-01 8.0583123582642305e-03 1.2815982946188953e-01 -2.2639654374102001e-02 -5.7814735867939178e-02 8.0583123582642271e-03 -5.7814735867939178e-02 3.3406339714457049e-02  -4.8719544750660641e-02 1.2271032078132796e-01 2.4617010458574628e-02 1.2271032078132796e-01 4.6712120612458725e-02 -5.3143901923825294e-02 2.4617010458574624e-02 -5.3143901923825294e-02 4.1097536100297524e-02  -8.9555946003695472e-02 7.3123603214127877e-02 3.2273536645790857e-02 7.3123603214127877e-02 6.6955325022909407e-02 -5.2680803688038902e-02 3.2273536645790857e-02 -5.2680803688038902e-02 5.3185246428323590e-02  -9.2134128486242445e-02 2.4683243400444328e-02 4.9556275425908368e-02 2.4683243400444328e-02 8.8435480722140927e-02 -3.6887962024101197e-02 4.9556275425908368e-02 -3.6887962024101204e-02 2.8762742226202839e-02  -7.1433634733471418e-02 -2.6068790222318970e-02 5.7996816108149947e-02 -2.6068790222318970e-02 7.2189091811270534e-02 -2.2950324839221926e-02 5.7996816108149947e-02 -2.2950324839221926e-02 1.7148603768662684e-02  -6.9130174244509235e-02 -3.6384669518608942e-02 4.0722066310559059e-02 -3.6384669518608942e-02 5.0031134839619892e-02 -2.2418025555920585e-02 4.072206