<?xml version="1.0"?>
<VTKFile type="UnstructuredGrid"  version="0.1"  >
<UnstructuredGrid>
<Piece  NumberOfPoints="1268" NumberOfCells="4847">
<Points>
<DataArray  type="Float64"  NumberOfComponents="3"  format="ascii">1.994716987487452 0.01317707561264319 -1.202466945460223e-11  1.374072606111497 -0.08614134488653273 -5.388997575085332  -1.285941478930618 0.1916557790035214 -5.691288663606836  -1.59032616235459 -0.4515196446136259 1.626303258728257e-17  0.4950030257755884 2.521650519233041 -5.495391852657774  -0.4107718940653654 -2.429115409112172 -5.58531208084276  -0.9314707163843408 -3.006923447963563 4.87890977618477e-17  1.161824811771535 2.948440156756841 -3.391384395534658e-14  2.146749234505421 0.002696741478414759 -0.5615078450779066  2.330988047973839 -0.000873250973709995 -1.113141311680313  2.540713632977715 -0.1384292375506191 -1.637427654548237  2.645241452520652 -0.2872312815961211 -2.18637082393926  2.504842461151312 -0.2752146673621067 -2.746850782899552  2.287876352721185 -0.2088259978706829 -3.283011632728322  2.137771360922677 -0.2093380261300688 -3.844996501809416  1.970142554575494 -0.2193701374385486 -4.401638277082749  1.701580801829277 -0.1696632515169769 -4.915066532844666  1.398049690886424 0.4419377546899956 -5.387643705321969  1.183972204621215 0.9208338616597355 -5.413149504812257  0.7621482426349403 1.234356207118232 -5.461782499987256  0.2539805730796886 1.370727420898931 -5.519751404145364  -0.2689415860383004 1.319053689498898 -5.578906487138381  -0.7357170559581984 1.076180709179107 -5.631191713357971  -1.086003096318238 0.6812820615514149 -5.669884670156524  -1.65706961757681 -0.5275128747266272 -0.6240725009925172  -1.829082870387909 -0.8347372240299333 -1.153553189134448  -2.030635262011336 -1.097965926806997 -1.693320688638939  -2.148557703924963 -0.9683820133813712 -2.295450526931833  -2.119047321408695 -0.7521727279271558 -2.890676896601294  -1.972500555455803 -0.7106310836492745 -3.509380855831461  -1.885028119342598 -0.4902108162504233 -4.093718100793141  -1.832050776792238 -0.1313823297003599 -4.617858136599065  -1.636180550340053 0.1151199882480144 -5.165527944859976  -1.540434086810702 0.1014447694855235 -7.644826989049428e-17  -1.339902801239663 0.6191128040412099 2.218327606354497e-17  -0.9949589579071262 1.053322092476122 2.12059320661159e-17  -0.5243975458638882 1.346285776146202 7.754217898549941e-16  0.01399251627036286 1.481823287560149 3.252316763596149e-17  0.5696211504784076 1.47677978548424 -7.207855520904863e-17  1.105448032340458 1.331487337928338 1.951563910473908e-16  1.561367740818086 1.018090979386763 -2.179459114756194e-16  1.860006992193919 0.551530302300456 1.369433074745588e-16  -0.152869286718376 2.506583809965366 -5.568804938302105  -0.7781210310064858 2.335338381675429 -5.639249366957451  -1.340550096787874 2.011723800088065 -5.702178028336585  -1.803922993566052 1.555830170950866 -5.753534898075912  -2.144678763029901 1.000979069722826 -5.790734833138769  -2.346903237737564 0.3811866585909049 -5.812061421922149  -2.406990243842066 -0.2684488461825228 -5.817196438260218  -2.318433628103212 -0.9144163570965761 -5.805488779558074  -2.059391262210163 -1.511004864267824 -5.774580158166454  -1.615755841275718 -1.983465489741105 -5.72306417450185  -1.043145925381342 -2.287058241276404 -5.657361969815248  -0.6986882361605687 -2.420627649803484 -5.024556445072709  -0.8272574030199392 -2.685291244074475 -4.476216325063944  -0.8113210073272845 -3.118860027310894 -4.01596683617901  -0.7618552434953355 -3.481598098596065 -3.504026669625047  -0.7509882165597778 -3.609083979854663 -2.886473298216772  -0.7986167670519319 -3.732483084086931 -2.268445488219849  -0.8276969497603353 -3.810997815301134 -1.64593496945388  -0.7425506523451623 -3.557242155569485 -1.078322423839125  -0.7147449622328144 -3.21189056194362 -0.5511080601316157  -1.482234509376526 -2.778582553401298 -5.854479658363816e-16  -1.970737176894139 -2.437284655419533 2.764697292186607e-16  -2.362818572203899 -1.988727212877528 2.439101268600111e-16  -2.642390785384022 -1.462244173776716 5.051059276813266e-16  -2.812149102113852 -0.89052423419162 2.276851973687203e-16  -2.877946727920729 -0.2976446157883296 -1.219909928720168e-16  -2.842947107925845 0.2978601752284433 4.065446096494693e-17  -2.70313036896374 0.8776122116387211 -5.041496169361013e-16  -2.452324348076021 1.418519584933707 4.379274460317988e-16  -2.098265626135573 1.898294456130726 1.951060033519619e-16  -1.658391347368763 2.301023318502569 -1.789574489620802e-16  -1.154148079923361 2.619757341302747 -2.081203863085907e-15  -0.6042202207747882 2.851073703499478 -3.577841418755692e-16  -0.02416138323675775 2.990516581461941 4.065982498622179e-16  0.5710641261211448 3.028216945076794 -1.46882551317968e-16  0.6414151130412097 2.696325287154043 -4.983333021490838  0.771852374565919 2.778456367279237 -4.445188759107248  0.8805845204306011 2.73078881179073 -3.897720120696569  0.9481597620953167 2.69798349057175 -3.343104559074628  0.9815370707090804 2.778214865778854 -2.789250505759619  1.013475345489448 2.861817704396183 -2.235671116027784  1.055849759321274 2.898356228459238 -1.677594140621302  1.093646323460014 2.92793989028903 -1.118725590781912  1.124098871622056 2.957526991478201 -0.5594169689370629  0.2477015793419729 -2.415655802610486 -5.510682951113449  0.8844491790088972 -2.245867158009595 -5.438931443942415  1.464891069119211 -1.932330028996181 -5.373934600293736  1.955087092649627 -1.489613175355717 -5.319502697776375  2.318355026965356 -0.937054784961175 -5.279744576064058  2.524994411863564 -0.307899182343253 -5.257941630215678  2.574632820450045 0.3531084349228537 -5.254020561031156  2.465743861849647 1.006614152640354 -5.268052816559671  2.183897076015212 1.604484044160622 -5.301550147358176  1.722560240631265 2.07491696755195 -5.35506775502591  1.13806318635062 2.378906583716481 -5.422118662603529  1.742182153284979 2.73179858498085 5.854691697147836e-16  2.262480931380501 2.395264875892136 -2.601681534737615e-16  2.698000706832733 1.954727370266727 -3.903113804560263e-16  3.021530388777258 1.426473918441798 1.707421408502106e-16  3.223363606607101 0.8405687193648443 -2.844806418042028e-16  3.305434793487241 0.2261994274297442 -4.472186606099012e-16  3.269241566985055 -0.3926051469820059 3.171555149681837e-16  3.113478077610213 -0.9924495549400153 3.510830505762065e-16  2.840400132149515 -1.548806515270482 -1.707368614952523e-16  2.466120284856568 -2.042983582774378 9.732831365154574e-17  2.008125599488538 -2.460814027017948 -3.577575055983979e-16  1.482521285196868 -2.789563899556613 -4.886146623064541e-17  0.9057866143556688 -3.01678997208197 -2.439392613813594e-16  0.2964958724913082 -3.130681163554852 3.414395345104792e-16  -0.32338307292875 -3.126978161260848 2.926910878106614e-16  -1.29067345658392 -0.3506098753383553 -5.690421630247788  -1.068897680254163 -0.8451623229646739 -5.663999894259847  -0.6782440885714781 -1.219621806060448 -5.6187489875115  -0.168757542531344 -1.390394566692369 -5.560546895724229  0.3611301401510615 -1.294122251639114 -5.500717901478111  0.8191548613516448 -1.005201308695582 -5.449538098373106  1.16817203978903 -0.5892762115769014 -5.411042670828763  1.960898302630318 -0.551652302616722 -8.131516293641286e-17  1.751009740180289 -1.077278642631261 7.445724005953314e-16  1.394016468000002 -1.516729095803803 1.136104663605282e-15  0.9227767039454898 -1.830301465573364 3.434443593283319e-16  0.3780412068884804 -1.984007749105097 8.617772484356591e-16  -0.1885780664025548 -1.977994130030172 2.357202029695971e-16  -0.7327557451871473 -1.821291124380143 1.942410916395698e-17  -1.191068596016128 -1.491774666596192 2.975009434367945e-16  -1.480405544894888 -1.006855825633415 6.954512630084263e-16  -1.812414118534285 0.2561131097252937 -2.664867827914479  2.421751940242729 0.6298287624476981 -1.933377861698098  0.7556418177061754 1.42269463362527 -4.617654324361507  0.003134751711410342 1.574821943356493 -0.9318675177876981  1.015098001669947 1.51699057942374 -0.9441494884276413  0.6193243625380082 1.764115149411371 -1.862230514405671  -0.4757031201037318 1.549728101933577 -1.958273018773558  0.1126459993007786 1.698838152590054 -2.957602797129454  -0.3405660022430232 1.569615851499001 -4.678135257405353  1.818199099779932 0.7365610114574719 -3.763003518505052  -0.9541815370276669 1.23451227632913 -2.875526912859068  -1.269464226480212 1.016489154450913 -4.672047638709048  1.301562892980348 1.557566760682666 -2.802482532053872  -0.7813756340336595 1.414221906310649 -3.725761628685261  -1.58370798409762 0.5643609111372817 -3.581008460136619  -0.988817348255397 1.158392548936659 -1.014254585170146  -1.607700527190565 0.2800106654898483 -1.030081240453645  -1.388203055800784 0.7951310659851955 -1.943712885648593  0.8261955720421881 1.570157055202129 -3.620947225245673  1.681455131778566 1.410849015379531 -1.876189895849114  1.878739160554727 0.943024132521903 -0.9866418074548234  2.103426639579445 1.000735947836943 -2.593434794762663  1.62623803052506 0.6468498306152269 -4.727220189271843  -1.882943490361709 -0.1546739965127431 -1.761716647663214  0.05868355051519467 1.656538949473053 -3.863342338366238  2.465845305360337 0.2632819454094029 -2.663569745038379  1.994842599423799 0.5019775153043848 -0.4779055074204815  2.1671824130763 0.4980244878585698 -1.027636182799239  1.710213566460811 0.9718796190568162 -0.4957578884333736  1.845584590132108 0.2253887364997403 -4.583879812097906  1.579035044615276 0.2924902970866011 -5.101748935835201  1.409777182251665 0.7868327264427526 -5.07202467441607  -1.039178737375989 1.089168173550246 -5.170746090958521  -1.377687418630729 0.6683636420802941 -5.233117919580046  -1.641402128985454 0.4875654733502939 -4.648722230221863  -1.765467255797776 -0.2695484060062747 -1.079683539430899  -1.617858736076732 -0.08318463488274264 -0.5123563299218489  -1.474019211051276 0.4496529111656123 -0.5150171376928306  2.417677350191343 0.3274903893149403 -1.506992657970159 
[...]
<PointData  Tensors="strain"> 
<DataArray  type="Float64"  Name="strain"  NumberOfComponents="9" format="ascii">-5.0563567910260426e-02 -9.7965979848743077e-03 -2.3265031951164125e-01 -9.7965979848743077e-03 8.4393194553001125e-03 -1.7532405552500165e-02 -2.3265031951164125e-01 -1.7532405552500165e-02 1.6771822463020525e-01  -1.6564188620601175e-01 3.9762854622422301e-02 1.2948977938754577e-01 3.9762854622422295e-02 3.1222746646533273e-01 -7.4918712082485225e-02 1.2948977938754577e-01 -7.4918712082485239e-02 1.0478178027906938e-02  -1.3330855630357863e-01 6.2869235965728881e-02 -1.5196958311555880e-01 6.2869235965728881e-02 3.0219463995267831e-01 8.1364092131297042e-02 -1.5196958311555880e-01 8.1364092131297042e-02 -6.6980457584832924e-03  -6.5636889127560272e-02 -3.4028943315692471e-02 2.1505219898234160e-01 -3.4028943315692471e-02 2.7451522862007721e-03 -3.9960090752705166e-02 2.1505219898234160e-01 -3.9960090752705166e-02 1.8846199559773824e-01  8.1227898663787781e-02 -7.9226519454951138e-03 4.8554280190593664e-02 -7.9226519454951138e-03 -7.8050658102894230e-02 4.1814297670122097e-02 4.8554280190593664e-02 4.1814297670122097e-02 1.7420821582044031e-02  1.4830854085020770e-01 -5.5175841220408226e-03 -4.7183166102538483e-02 -5.5175841220408200e-03 -1.2728948788465705e-01 -3.1000567051094666e-02 -4.7183166102538490e-02 -3.1000567051094666e-02 1.8825549948889665e-02  6.5858817954419988e-03 1.8418717080797110e-02 -5.2381471934713535e-02 1.8418717080797110e-02 -1.8436282708741824e-02 1.4052264110801510e-01 -5.2381471934713535e-02 1.4052264110801510e-01 4.8551520203727896e-02  4.8860463187895596e-03 2.6838664544627189e-02 5.0729460640834674e-02 2.6838664544627189e-02 4.2426257159702961e-02 -5.8389881729290327e-02 5.0729460640834674e-02 -5.8389881729290327e-02 -3.5252092144260325e-02  -1.7523796917405363e-01 -3.6922622228995006e-02 -1.2658886914757878e-01 -3.6922622228995006e-02 1.5415455583057913e-01 -6.7999840391357369e-02 -1.2658886914757878e-01 -6.7999840391357369e-02 1.3933222104471008e-01  -1.9890551447029794e-01 -4.7280710841433760e-02 -1.0542729906231005e-01 -4.7280710841433760e-02 2.1947570618764001e-01 -5.7583023548978908e-02 -1.0542729906231005e-01 -5.7583023548978908e-02 1.1609258574921716e-01  -2.2709828607324395e-01 -8.8401350881188567e-03 -9.2196707850040693e-02 -8.8401350881188567e-03 2.4488525223111354e-01 -3.2905682900777500e-02 -9.2196707850040666e-02 -3.2905682900777500e-02 1.3283461859770748e-01  -2.4806830956705042e-01 2.3809148230361940e-02 2.1292475983966394e-03 2.3809148230361940e-02 2.3580496596602646e-01 -5.2050436986009162e-02 2.1292475983966355e-03 -5.2050436986009162e-02 1.7081312155224290e-01  -2.1342695520391070e-01 -4.3601873435664190e-03 1.0915483213384343e-01 -4.3601873435664251e-03 2.8833554363880054e-01 -6.6618153606339367e-02 1.0915483213384343e-01 -6.6618153606339367e-02 8.9721138885308513e-02  -2.0367907024424400e-01 -4.2695381674238676e-02 9.6424352687799364e-02 -4.2695381674238669e-02 3.3024712826347336e-01 -2.3479352425100013e-02 9.6424352687799364e-02 -2.3479352425100013e-02 3.4490033720889920e-02  -2.1571854623841244e-01 -1.6003851002894313e-02 8.4998825178373177e-02 -1.6003851002894306e-02 3.4113316768908419e-01 -1.4749513832978758e-02 8.4998825178373177e-02 -1.4749513832978761e-02 3.8661508663301147e-02  -1.9829600714713372e-01 3.7551877114953844e-03 1.1204141236523971e-01 3.7551877114953844e-03 3.2240442908687655e-01 -3.9402698992147780e-02 1.1204141236523971e-01 -3.9402698992147780e-02 3.5890035477756016e-02  -1.5995677903614341e-01 2.7574965891972898e-02 1.4771351318768342e-01 2.7574965891972898e-02 3.1199152665325697e-01 -5.1857722312569764e-02 1.4771351318768342e-01 -5.1857722312569764e-02 1.2375262837248522e-02  -1.3892521140266503e-01 -1.1951396218112247e-01 1.5858774319295565e-01 -1.1951396218112247e-01 2.5252827326656624e-01 -1.5748562224699392e-02 1.5858774319295565e-01 -1.5748562224699395e-02 4.2504316122003102e-02  5.2292465771216603e-03 -2.3865723923712098e-01 1.2615672841683048e-01 -2.3865723923712098e-01 9.5191711934890524e-02 4.7396424095215044e-02 1.2615672841683048e-01 4.7396424095215044e-02 5.6448649308432235e-02  1.7852279671828300e-01 -1.8582348738881949e-01 9.6232805260664661e-02 -1.8582348738881949e-01 -1.0467696050880980e-01 9.5740273844578408e-02 9.6232805260664675e-02 9.5740273844578408e-02 7.6248341834881134e-02  2.5108964030972430e-01 -4.2015514234218995e-02 6.0190643024737360e-02 -4.2015514234218995e-02 -1.7884203304382659e-01 1.4313284314262117e-01 6.0190643024737360e-02 1.4313284314262112e-01 8.1045051873576759e-02  2.2461941180423334e-01 1.0449713947374359e-01 -6.1639665338547849e-03 1.0449713947374359e-01 -1.3832335142545513e-01 1.7362307651093561e-01 -6.1639665338547823e-03 1.7362307651093564e-01 7.1812619117274976e-02  1.0052009750857817e-01 1.9933798647777395e-01 -5.8928756329457432e-02 1.9933798647777395e-01 7.0572726762790066e-03 1.6532841996812556e-01 -5.8928756329457432e-02 1.6532841996812556e-01 4.3982318972204199e-02  -4.5108110540656651e-02 1.8163160553110649e-01 -1.1080168565099294e-01 1.8163160553110649e-01 1.7329309460361333e-01 1.3685297859749998e-01 -1.1080168565099294e-01 1.3685297859750001e-01 2.7379472643913404e-02  -1.8462836970994703e-01 -7.9603735165945048e-03 1.1272298026565948e-01 -7.9603735165945048e-03 1.3197791215474175e-01 1.2311972158362485e-02 1.1272298026565948e-01 1.2311972158362489e-02 1.5580868015116234e-01  -1.8824396064910240e-01 -2.7375832233889653e-02 1.0462256087024378e-01 -2.7375832233889653e-02 2.1181286708799421e-01 7.2487667470495848e-03 1.0462256087024378e-01 7.2487667470495848e-03 9.3881842959060061e-02  -2.1495738068336942e-01 -3.2887630764399253e-02 9.1230805224650408e-02 -3.2887630764399253e-02 2.2241378027059355e-01 2.6857219225282739e-02 9.1230805224650408e-02 2.6857219225282745e-02 1.3137551091264565e-01  -2.4648257477814042e-01 -1.9159986927271718e-02 1.8466733966336080e-02 -1.9159986927271718e-02 2.4970475154442925e-01 4.8858852638234064e-02 1.8466733966336076e-02 4.8858852638234078e-02 1.5025010074284084e-01  -2.4232247685036884e-01 1.5705624366585421e-04 -4.2693979773029418e-02 1.5705624366584998e-04 2.7814376153706588e-01 8.1842778597210411e-02 -4.2693979773029418e-02 8.1842778597210383e-02 1.2478940999787849e-01  -2.2423565663272674e-01 -2.5116478168331891e-02 -5.8709757450423485e-02 -2.5116478168331891e-02 3.1104663820800776e-01 9.4156440978419020e-02 -5.8709757450423471e-02 9.4156440978419020e-02 7.2957637312056872e-02  -2.3023979790364477e-01 -1.5552001927147417e-02 -4.6629493740187995e-02 -1.5552001927147417e-02 3.0818294779974087e-01 1.0613394288744461e-01 -4.6629493740187988e-02 1.0613394288744461e-01 8.3227674461046605e-02  -2.3498093654676158e-01 3.5982811380625750e-02 -6.1719307330259307e-02 3.5982811380625750e-02 2.9172647616455377e-01 9.2228331202871244e-02 -6.1719307330259307e-02 9.2228331202871258e-02 1.0903038278895340e-01  -1.9138424603553408e-01 5.3316310962732524e-02 -1.2283747605870664e-01 5.3316310962732510e-02 2.8513782128090814e-01 9.7034458368902274e-02 -1.2283747605870667e-01 9.7034458368902274e-02 7.3442051966979907e-02  -9.5831390084603341e-02 1.9837925506324800e-03 2.0535993433612576e-01 1.9837925506324800e-03 1.2946463426358506e-02 -6.1745340068436384e-02 2.0535993433612576e-01 -6.1745340068436384e-02 2.1428840777508829e-01  -7.7717972949862504e-02 3.1240651946181419e-02 1.7329918407502595e-01 3.1240651946181419e-02 -5.7921284385002774e-03 -1.2088150804386669e-01 1.7329918407502595e-01 -1.2088150804386669e-01 2.1217777965842480e-01  -5.9270935262750540e-02 6.1759623418922140e-02 1.4163152209409000e-01 6.1759623418922140e-02 -3.3836231790760909e-02 -1.5250698092018275e-01 1.4163152209409000e-01 -1.5250698092018275e-01 2.2697266698505372e-01  -1.8223117232677565e-02 4.4897503102559223e-02 7.9553126239174085e-02 4.4897503102559223e-02 -6.7220067798125879e-02 -1.9021729421489497e-01 7.9553126239174085e-02 -1.9021729421489497e-01 2.2192684220165929e-01  1.6193319075986484e-04 3.2009956340508364e-02 4.6032219316277379e-02 3.2009956340508364e-02 -9.5104366636476770e-02 -2.0418552673131804e-01 4.6032219316277379e-02 -2.0418552673131804e-01 2.3769289005063807e-01  4.0692126518911452e-03 1.6842216083474942e-03 -3.2075668165148327e-02 1.6842216083474955e-03 -9.7635349519746173e-02 -2.1136888444307034e-01 -3.2075668165148327e-02 -2.1136888444307034e-01 2.4192517432804864e-01  1.0644343481455753e-02 -2.1321265131785935e-02 -7.7639753999511715e-02 -2.1321265131785935e-02 -8.7383511133476505e-02 -2.0300998037623519e-01 -7.7639753999511715e-02 -2.0300998037623519e-01 2.0922141613806972e-01  -2.1308325710918560e-02 -5.0741236359470566e-02 -1.7569906244483496e-01 -5.0741236359470566e-02 -4.9255950594347155e-02 -1.4295375293430737e-01 -1.7569906244483496e-01 -1.4295375293430737e-01 2.1991577079772190e-01  -7.0165501162260932e-02 -4.2103391295362919e-02 -2.2032495207126360e-01 -4.2103391295362919e-02 -2.3638834111636923e-02 -7.2274364402094199e-02 -2.2032495207126360e-01 -7.2274364402094199e-02 2.4785008742450146e-01  6.7715817457012203e-02 3.1767648614286173e-02 3.1495487898423422e-02 3.1767648614286166e-02 -6.8113051707543226e-02 6.3971799396905907e-02 3.1495487898423422e-02 6.3971799396905907e-02 2.1844274369414406e-02  5.9128940321629520e-02 6.3654095032939492e-02 1.8774438180746731e-02 6.3654095032939492e-02 -5.6648900063869634e-02 6.8653822443378240e-02 1.8774438180746731e-02 6.8653822443378240e-02 2.2366201200199349e-02  8.9368466642062647e-03 7.2775258104257112e-02 -3.2535914766299865e-03 7.2775258104257112e-02 -1.7914943559556723e-02 7.2208013473335303e-02 -3.2535914766299878e-03 7.2208013473335303e-02 2.9445181691680707e-02  -2.4671892195343610e-02 7.9259537013119580e-02 -3.8831109881794230e-02 7.9259537013119580e-02 4.6759140476068606e-02 6.4714430464489534e-02 -3.8831109881794230e-02 6.4714430464489534e-02 3.5654126122727685e-03  -5.7744887338586404e-02 5.1074557229390048e-02 -5.2887272936385753e-02 5.1074557229390055e-02 8.5462163146443629e-02 5.7600085405045659e-02 -5.2887272936385753e-02 5.7600085405045659e-02 -9.2558790008634602e-04  -7.5835892546798497e-02 1.6440050788422915e-02 -6.3006222763629272e-02 1.6440050788422915e-02 9.1150676709002093e-02 4.0985094562929654e-02 -6.3006222763629258e-02 4.0985094562929654e-02 1.0797578305164920e-02  -6.8230243924787007e-02 -2.0406428572396305e-02 -7.7626607826890223e-02 -2.0406428572396305e-02 8.7675829199296645e-02 2.5040142298489519e-02 -7.7626607826890237e-02 2.5040142298489537e-02 8.8857325420408848e-03  -4.0534012325093766e-02 -6.7922762914806423e-02 -6.6631751677046963e-02 -6.7922762914806437e-02 6.9681410225720025e-02 1.5705893450977937e-03 -6.6631751677046977e-02 1.5705893450977913e-03 -5.5362440267565493e-03  1.4639639035126581e-03 -8.5731681966584247e-02 -7.4814483654920105e-02 -8.5731681966584247e-02 6.8563785156366087e-03 1.2025108969659292e-02 -7.4814483654920091e-02 1.2025108969659288e-02 1.4831530086816458e-02  4.2791746531570654e-02 -3.3518035407418580e-02 -7.2915787472701041e-02 -3.3518035407418580e-02 -6.5641712249823486e-02 -1.4205185378739164e-02 -7.2915787472701041e-02 -1.4205185378739155e-02 3.5156862717634046e-02  1.0964857190629876e-01 -4.8457031074634699e-02 -5.9761634739366798e-02 -4.8457031074634699e-02 -9.6876023363090549e-02 -3.8418687658435036e-02 -5.9761634739366812e-02 -3.8418687658435036e-02 1.9154626356722902e-02  1.7984419021517273e-01 -3.6687780911444666e-02 -6.6157515746074161e-02 -3.6687780911444652e-02 -1.5798743275951535e-01 -8.6557620409483615e-02 -6.6157515746074161e-02 -8.6557620409483602e-02 6.5188887149775804e-02  1.7630757259858346e-01 -2.3816537356961938e-02 -5.8980056047422354e-02 -2.3816537356961934e-02 -9.8266638672284079e-02 -1.3908742442466113e-01 -5.8980056047422395e-02 -1.3908742442466113e-01 1.4321679512093422e-02  1.4549455700429584e-01 -4.1894116254515305e-03 -3.4957658052619418e-02 -4.1894116254515305e-03 -7.2053331518818070e-02 -1.1468385801887668e-01 -3.4957658052619404e-02 -1.1468385801887668e-01 -1.8857623598658987e-02  1.2450948451328780e-01 4.0032661525027241e-03 -2.5763141884620096e-02 4.0032661525027241e-03 -9.9142797001361874e-02 -7.5836246087317774e-02 -2.5763141884620103e-02 -7.5836246087317774e-02 1.0617784862181295e-02  1.0471201620265046e-01 -2.4593101516982626e-02 -4.7149707556804803e-02 -2.4593101516982626e-02 -1.3233698888359699e-01 -4.8174134297289256e-02 -4.7149707556804824e-02 -4.8174134297289256e-02 7.2331681000992853e-02  8.1394262472196985e-02 -2.7616714558147980e-02 -3.6731270127730947e-02 -2.7616714558147980e-02 -1.2630874290217181e-01 -2.5154940947412621e-02 -3.6731270127730954e-02 -2.5154940947412614e-02 7.8700488408487410e-02  5.3008123681864916e-02 -3.9271146513044967e-02 -7.3488328713755225e-03 -3.9271146513044967e-02 -8.6115395144876525e-02 3.0820739591216843e-02 -7.3488328713755225e-03 3.0820739591216843e-02 4.7520501310635177e-02  3.8195355341055191e-02 -6.8332353561260245e-02 -4.1451816831405879e-05 -6.8332353561260245e-02 -6.7527821360293186e-02 1.0133582674277540e-01 -4.1451816831405574e-05 1.0133582674277540e-01 6.8072902977879060e-02  4.0565366277277602e-02 -5.1211809872043379e-02 -1.8407145956415547e-02 -5.1211809872043379e-02 -9.0901320273158309e-02 1.3118009116061166e-01 -1.8407145956415551e-02 1.3118009116061172e-01 1.0997726299278496e-01  1.4321070119283946e-02 1.2491122572149127e-02 -2.5637210090277106e-02 1.2491122572149127e-02 -2.3058421480524827e-02 1.3299093657468841e-01 -2.5637210090277106e-02 1.3299093657468841e-01 3.4647084487496864e-02  1.9083383824740917e-02 4.7617779701166528e-03 -5.7054234180407030e-03 4.7617779701166528e-03 -2.4263087616366214e-02 1.2221586391819310e-01 -5.7054234180407013e-03 1.2221586391819310e-01 2.3166603231035532e-02  2.4173529340914410e-02 -9.0127049282555764e-03 2.1229318770481061e-02 -9.0127049282555764e-03 -2.8452646948085979e-02 1.1904676454374784e-01 2.1229318770481061e-02 1.1904676454374784e-01 2.2897814991293005e-02  2.9690349478063364e-02 -2.1060394749915164e-02 3.8909949362887782e-02 -2.1060394749915164e-02 -2.2069008415028776e-02 1.0585103874471667e-01 3.8909949362887782e-02 1.0585103874471667e-01 1.1153841009734228e-02  2.3059622466982628e-02 -1.8700843474675308e-02 5.9123260970747986e-02 -1.8700843474675308e-02 -1.7236718548564418e-02 9.6915798600622383e-02 5.9123260970747986e-02 9.6915798600622383e-02 9.4988844872594142e-03  4.6159335916311828e-02 -1.2274376207995437e-02 4.9161215766113923e-02 -1.2274376207995437e-02 5.4740213312875509e-04 7.2181723640421330e-02 4.9161215766113917e-02 7.2181723640421316e-02 -3.9840464223829170e-02  5.0274080057350776e-02 -1.8686446172597730e-02 6.1872159723615060e-02 -1.8686446172597730e-02 5.1049498508492610e-03 4.2275621718408651e-02 6.1872159723615101e-02 4.2275621718408651e-02 -4.7847033825027321e-02  1.8519166204671207e-02 -3.6436000120163861e-02 8.7243396351268515e-02 -3.6436000120163861e-02 2.0280578217969910e-02 3.8317378169070181e-02 8.7243396351268515e-02 3.8317378169070181e-02 -2.1269357908167478e-02  2.2573219485425254e-02 -3.8844143358839622e-02 7.9643106624037147e-02 -3.8844143358839622e-02 4.0121079128173961e-02 9.3307625722243402e-03 7.9643106624037147e-02 9.3307625722243402e-03 -4.8845411044712968e-02  8.7173645797358010e-03 -3.8225101933901516e-02 8.3155815486645163e-02 -3.8225101933901516e-02 5.7096327825895014e-02 -3.0316126980400788e-03 8.3155815486645163e-02 -3.0316126980400805e-03 -5.0497877476471859e-02  -1.5145512867111180e-02 -2.1821336024485202e-02 7.6786213932419703e-02 -2.1821336024485202e-02 6.5860662605152817e-02 -2.5238983483898931e-02 7.6786213932419731e-02 -2.5238983483898931e-02 -3.6318023557381673e-02  -2.2626127050137019e-02 5.5054179685754979e-03 7.6872136157273604e-02 5.5054179685754979e-03 5.4383944348668153e-02 -3.7654776928653391e-02 7.6872136157273604e-02 -3.7654776928653391e-02 -1.5627597219620766e-02  3.7994420792714922e-03 8.2905182574170826e-03 4.8968079132242034e-02 8.2905182574170844e-03 6.1523371390933008e-02 -4.4119678374618228e-02 4.8968079132242041e-02 -4.4119678374618228e-02 -5.5410490837343875e-02  1.1983541625274494e-02 -3.1111345751207106e-02 -1.2934656781405478e-02 -3.1111345751207106e-02 7.2478213165918376e-02 -6.5466931384873236e-02 -1.2934656781405474e-02 -6.5466931384873236e-02 -7.6245675820177425e-02  -1.4927101012859339e-02 2.5938809474956564e-02 3.7427384342662628e-02 2.5938809474956564e-02 4.4196201645407281e-02 -5.8394579692385901e-02 3.7427384342662622e-02 -5.8394579692385901e-02 -1.7451690521809289e-02  6.9109883352789961e-02 -3.3924986320466484e-02 4.4668892462531591e-02 -3.3924986320466463e-02 -8.7485745549287092e-02 2.7417922524386074e-02 4.4668892462531612e-02 2.7417922524386074e-02 4.0315918803411871e-02  7.2709253366266796e-02 -3.7285622844399631e-02 4.7542824885431850e-02 -3.7285622844399631e-02 -9.6167275770570257e-02 8.1905803385784893e-04 4.7542824885431850e-02 8.1905803385784893e-04 4.4434828577145112e-02  8.8593097155449579e-02 -6.2502522704376784e-02 5.2218273837590021e-02 -6.2502522704376784e-02 -1.2038337382152646e-01 -8.2372421107046942e-03 5.2218273837590021e-02 -8.2372421107046942e-03 7.0939040291858005e-02  1.1840841534379569e-01 -6.0322043951717752e-02 5.7123294658361315e-02 -6.0322043951717752e-02 -1.4601525943992155e-01 1.3144127912579628e-02 5.7123294658361315e-02 1.3144127912579628e-02 8.5962913510696376e-02  1.0830287408817865e-01 -5.2998086424065213e-02 5.4727777914064378e-02 -5.2998086424065213e-02 -1.4090065694336887e-01 2.4443469906213548e-02 5.4727777914064378e-02 2.4443469906213548e-02 8.6475702543622468e-02  9.8452380249254970e-02 -3.9196022973512913e-02 4.2182106295808743e-02 -3.9196022973512913e-02 -1.4032828003791417e-01 2.0673329200503385e-02 4.2182106295808756e-02 2.0673329200503385e-02 8.7846501385511463e-02  7.1800229385055037e-02 -3.2639993009852077e-02 3.0956814858743444e-02 -3.2639993009852077e-02 -1.2993847387297242e-01 8.8443893369189348e-03 3.0956814858743437e-02 8.8443893369189348e-03 9.4586257723349276e-02  4.7532043791934500e-02 -3.0233606850507626e-02 5.7129979309584328e-02 -3.0233606850507626e-02 -1.1053202116077265e-01 -1.0190515125939640e-02 5.7129979309584328e-02 -1.0190515125939640e-02 9.0045498329738724e-02  3.8911939326410870e-02 -1.2597983894457208e-02 6.4591991204163146e-02 -1.2597983894457208e-02 -3.2860020274087860e-02 -3.8949441307329674e-03 6.4591991204163146e-02 -3.8949441307329674e-03 -2.2306021290241745e-03  1.3170560275308105e-01 4.7955463810555134e-02 -3.5028180132035479e-02 4.7955463810555148e-02 -1.1770500036779004e-01 -6.0002798718406164e-02 -3.5028180132035479e-02 -6.0002798718406164e-02 2.6937021150766762e-02  1.0914873537847766e-01 1.2038333251921983e-01 -9.4048984402128662e-03 1.2038333251921977e-01 -8.3767040051509228e-02 -6.5829115592725612e-02 -9.4048984402128662e-03 -6.5829115592725612e-02 2.6012979932647042e-02  3.0142142408666257e-02 1.3825964186297873e-01 9.7551696329087178e-03 1.3825964186297873e-01 -2.7067271708915448e-02 -6.4493907746475773e-02 9.7551696329087317e-03 -6.4493907746475843e-02 4.2524059368881977e-02  -5.0556902133098394e-02 1.3397624416853901e-01 2.5962255226697643e-02 1.3397624416853901e-01 4.9804168786776015e-02 -5.9919658955433844e-02 2.5962255226697640e-02 -5.9919658955433844e-02 4.7938558417648609e-02  -9.6987728357390932e-02 8.0327597539959189e-02 3.8198239380804966e-02 8.0327597539959189e-02 7.3651535958905487e-02 -5.9185142457380630e-02 3.8198239380804966e-02 -5.9185142457380630e-02 6.1418981587551651e-02  -1.0328925451959828e-01 2.7980755858961832e-02 5.7003496667165920e-02 2.7980755858961818e-02 9.8664173743579192e-02 -4.2701979196236382e-02 5.7003496667165920e-02 -4.2701979196236382e-02 3.7591402166294585e-02  -8.0904005606989002e-02 -2.9570074293672911e-02 6.7610253454702618e-02 -2.9570074293672904e-02 8.1548272137423841e-02 -2.5800558997341218e-02 6.7610253454702618e-02 -2.5800558997341218e-02 2.3572381136478592e-02  -7.8018765114365118e-02 -4.2756288158011281e-02 5.1071148158228004e-02 -4.2756288158011274e-02 5.6255798076824653e-02 -2.3943630968655552e-02 5.10711