<?xml version="1.0"?>
<VTKFile type="UnstructuredGrid"  version="0.1"  >
<UnstructuredGrid>
<Piece  NumberOfPoints="1268" NumberOfCells="4847">
<Points>
<DataArray  type="Float64"  NumberOfComponents="3"  format="ascii">1.994716987487452 0.01317707561264319 -1.202466945460223e-11  1.374072606111497 -0.08614134488653273 -5.388997575085332  -1.285941478930618 0.1916557790035214 -5.691288663606836  -1.59032616235459 -0.4515196446136259 1.626303258728257e-17  0.4950030257755884 2.521650519233041 -5.495391852657774  -0.4107718940653654 -2.429115409112172 -5.58531208084276  -0.9314707163843408 -3.006923447963563 4.87890977618477e-17  1.161824811771535 2.948440156756841 -3.391384395534658e-14  2.146749234505421 0.002696741478414759 -0.5615078450779066  2.330988047973839 -0.000873250973709995 -1.113141311680313  2.540713632977715 -0.1384292375506191 -1.637427654548237  2.645241452520652 -0.2872312815961211 -2.18637082393926  2.504842461151312 -0.2752146673621067 -2.746850782899552  2.287876352721185 -0.2088259978706829 -3.283011632728322  2.137771360922677 -0.2093380261300688 -3.844996501809416  1.970142554575494 -0.2193701374385486 -4.401638277082749  1.701580801829277 -0.1696632515169769 -4.915066532844666  1.398049690886424 0.4419377546899956 -5.387643705321969  1.183972204621215 0.9208338616597355 -5.413149504812257  0.7621482426349403 1.234356207118232 -5.461782499987256  0.2539805730796886 1.370727420898931 -5.519751404145364  -0.2689415860383004 1.319053689498898 -5.578906487138381  -0.7357170559581984 1.076180709179107 -5.631191713357971  -1.086003096318238 0.6812820615514149 -5.669884670156524  -1.65706961757681 -0.5275128747266272 -0.6240725009925172  -1.829082870387909 -0.8347372240299333 -1.153553189134448  -2.030635262011336 -1.097965926806997 -1.693320688638939  -2.148557703924963 -0.9683820133813712 -2.295450526931833  -2.119047321408695 -0.7521727279271558 -2.890676896601294  -1.972500555455803 -0.7106310836492745 -3.509380855831461  -1.885028119342598 -0.4902108162504233 -4.093718100793141  -1.832050776792238 -0.1313823297003599 -4.617858136599065  -1.636180550340053 0.1151199882480144 -5.165527944859976  -1.540434086810702 0.1014447694855235 -7.644826989049428e-17  -1.339902801239663 0.6191128040412099 2.218327606354497e-17  -0.9949589579071262 1.053322092476122 2.12059320661159e-17  -0.5243975458638882 1.346285776146202 7.754217898549941e-16  0.01399251627036286 1.481823287560149 3.252316763596149e-17  0.5696211504784076 1.47677978548424 -7.207855520904863e-17  1.105448032340458 1.331487337928338 1.951563910473908e-16  1.561367740818086 1.018090979386763 -2.179459114756194e-16  1.860006992193919 0.551530302300456 1.369433074745588e-16  -0.152869286718376 2.506583809965366 -5.568804938302105  -0.7781210310064858 2.335338381675429 -5.639249366957451  -1.340550096787874 2.011723800088065 -5.702178028336585  -1.803922993566052 1.555830170950866 -5.753534898075912  -2.144678763029901 1.000979069722826 -5.790734833138769  -2.346903237737564 0.3811866585909049 -5.812061421922149  -2.406990243842066 -0.2684488461825228 -5.817196438260218  -2.318433628103212 -0.9144163570965761 -5.805488779558074  -2.059391262210163 -1.511004864267824 -5.774580158166454  -1.615755841275718 -1.983465489741105 -5.72306417450185  -1.043145925381342 -2.287058241276404 -5.657361969815248  -0.6986882361605687 -2.420627649803484 -5.024556445072709  -0.8272574030199392 -2.685291244074475 -4.476216325063944  -0.8113210073272845 -3.118860027310894 -4.01596683617901  -0.7618552434953355 -3.481598098596065 -3.504026669625047  -0.7509882165597778 -3.609083979854663 -2.886473298216772  -0.7986167670519319 -3.732483084086931 -2.268445488219849  -0.8276969497603353 -3.810997815301134 -1.64593496945388  -0.7425506523451623 -3.557242155569485 -1.078322423839125  -0.7147449622328144 -3.21189056194362 -0.5511080601316157  -1.482234509376526 -2.778582553401298 -5.854479658363816e-16  -1.970737176894139 -2.437284655419533 2.764697292186607e-16  -2.362818572203899 -1.988727212877528 2.439101268600111e-16  -2.642390785384022 -1.462244173776716 5.051059276813266e-16  -2.812149102113852 -0.89052423419162 2.276851973687203e-16  -2.877946727920729 -0.2976446157883296 -1.219909928720168e-16  -2.842947107925845 0.2978601752284433 4.065446096494693e-17  -2.70313036896374 0.8776122116387211 -5.041496169361013e-16  -2.452324348076021 1.418519584933707 4.379274460317988e-16  -2.098265626135573 1.898294456130726 1.951060033519619e-16  -1.658391347368763 2.301023318502569 -1.789574489620802e-16  -1.154148079923361 2.619757341302747 -2.081203863085907e-15  -0.6042202207747882 2.851073703499478 -3.577841418755692e-16  -0.02416138323675775 2.990516581461941 4.065982498622179e-16  0.5710641261211448 3.028216945076794 -1.46882551317968e-16  0.6414151130412097 2.696325287154043 -4.983333021490838  0.771852374565919 2.778456367279237 -4.445188759107248  0.8805845204306011 2.73078881179073 -3.897720120696569  0.9481597620953167 2.69798349057175 -3.343104559074628  0.9815370707090804 2.778214865778854 -2.789250505759619  1.013475345489448 2.861817704396183 -2.235671116027784  1.055849759321274 2.898356228459238 -1.677594140621302  1.093646323460014 2.92793989028903 -1.118725590781912  1.124098871622056 2.957526991478201 -0.5594169689370629  0.2477015793419729 -2.415655802610486 -5.510682951113449  0.8844491790088972 -2.245867158009595 -5.438931443942415  1.464891069119211 -1.932330028996181 -5.373934600293736  1.955087092649627 -1.489613175355717 -5.319502697776375  2.318355026965356 -0.937054784961175 -5.279744576064058  2.524994411863564 -0.307899182343253 -5.257941630215678  2.574632820450045 0.3531084349228537 -5.254020561031156  2.465743861849647 1.006614152640354 -5.268052816559671  2.183897076015212 1.604484044160622 -5.301550147358176  1.722560240631265 2.07491696755195 -5.35506775502591  1.13806318635062 2.378906583716481 -5.422118662603529  1.742182153284979 2.73179858498085 5.854691697147836e-16  2.262480931380501 2.395264875892136 -2.601681534737615e-16  2.698000706832733 1.954727370266727 -3.903113804560263e-16  3.021530388777258 1.426473918441798 1.707421408502106e-16  3.223363606607101 0.8405687193648443 -2.844806418042028e-16  3.305434793487241 0.2261994274297442 -4.472186606099012e-16  3.269241566985055 -0.3926051469820059 3.171555149681837e-16  3.113478077610213 -0.9924495549400153 3.510830505762065e-16  2.840400132149515 -1.548806515270482 -1.707368614952523e-16  2.466120284856568 -2.042983582774378 9.732831365154574e-17  2.008125599488538 -2.460814027017948 -3.577575055983979e-16  1.482521285196868 -2.789563899556613 -4.886146623064541e-17  0.9057866143556688 -3.01678997208197 -2.439392613813594e-16  0.2964958724913082 -3.130681163554852 3.414395345104792e-16  -0.32338307292875 -3.126978161260848 2.926910878106614e-16  -1.29067345658392 -0.3506098753383553 -5.690421630247788  -1.068897680254163 -0.8451623229646739 -5.663999894259847  -0.6782440885714781 -1.219621806060448 -5.6187489875115  -0.168757542531344 -1.390394566692369 -5.560546895724229  0.3611301401510615 -1.294122251639114 -5.500717901478111  0.8191548613516448 -1.005201308695582 -5.449538098373106  1.16817203978903 -0.5892762115769014 -5.411042670828763  1.960898302630318 -0.551652302616722 -8.131516293641286e-17  1.751009740180289 -1.077278642631261 7.445724005953314e-16  1.394016468000002 -1.516729095803803 1.136104663605282e-15  0.9227767039454898 -1.830301465573364 3.434443593283319e-16  0.3780412068884804 -1.984007749105097 8.617772484356591e-16  -0.1885780664025548 -1.977994130030172 2.357202029695971e-16  -0.7327557451871473 -1.821291124380143 1.942410916395698e-17  -1.191068596016128 -1.491774666596192 2.975009434367945e-16  -1.480405544894888 -1.006855825633415 6.954512630084263e-16  -1.812414118534285 0.2561131097252937 -2.664867827914479  2.421751940242729 0.6298287624476981 -1.933377861698098  0.7556418177061754 1.42269463362527 -4.617654324361507  0.003134751711410342 1.574821943356493 -0.9318675177876981  1.015098001669947 1.51699057942374 -0.9441494884276413  0.6193243625380082 1.764115149411371 -1.862230514405671  -0.4757031201037318 1.549728101933577 -1.958273018773558  0.1126459993007786 1.698838152590054 -2.957602797129454  -0.3405660022430232 1.569615851499001 -4.678135257405353  1.818199099779932 0.7365610114574719 -3.763003518505052  -0.9541815370276669 1.23451227632913 -2.875526912859068  -1.269464226480212 1.016489154450913 -4.672047638709048  1.301562892980348 1.557566760682666 -2.802482532053872  -0.7813756340336595 1.414221906310649 -3.725761628685261  -1.58370798409762 0.5643609111372817 -3.581008460136619  -0.988817348255397 1.158392548936659 -1.014254585170146  -1.607700527190565 0.2800106654898483 -1.030081240453645  -1.388203055800784 0.7951310659851955 -1.943712885648593  0.8261955720421881 1.570157055202129 -3.620947225245673  1.681455131778566 1.410849015379531 -1.876189895849114  1.878739160554727 0.943024132521903 -0.9866418074548234  2.103426639579445 1.000735947836943 -2.593434794762663  1.62623803052506 0.6468498306152269 -4.727220189271843  -1.882943490361709 -0.1546739965127431 -1.761716647663214  0.05868355051519467 1.656538949473053 -3.863342338366238  2.465845305360337 0.2632819454094029 -2.663569745038379  1.994842599423799 0.5019775153043848 -0.4779055074204815  2.1671824130763 0.4980244878585698 -1.027636182799239  1.710213566460811 0.9718796190568162 -0.4957578884333736  1.845584590132108 0.2253887364997403 -4.583879812097906  1.579035044615276 0.2924902970866011 -5.101748935835201  1.409777182251665 0.7868327264427526 -5.07202467441607  -1.039178737375989 1.089168173550246 -5.170746090958521  -1.377687418630729 0.6683636420802941 -5.233117919580046  -1.641402128985454 0.4875654733502939 -4.648722230221863  -1.765467255797776 -0.2695484060062747 -1.079683539430899  -1.617858736076732 -0.08318463488274264 -0.5123563299218489  -1.474019211051276 0.4496529111656123 -0.5150171376928306  2.417677350191343 0.3274903893149403 -1.506992657970159 
[...]
<PointData  Tensors="strain"> 
<DataArray  type="Float64"  Name="strain"  NumberOfComponents="9" format="ascii">-4.5803861269686393e-02 -9.9168068327274029e-03 -2.8775764805366399e-01 -9.9168068327274029e-03 1.1171869343126297e-02 -3.9156835836671282e-02 -2.8775764805366399e-01 -3.9156835836671282e-02 2.2100617609838993e-01  -1.8608250932976603e-01 4.9759140279935880e-02 1.4840101534313480e-01 4.9759140279935880e-02 3.7883407575914985e-01 -8.3708465954751107e-02 1.4840101534313477e-01 -8.3708465954751107e-02 2.3468557332835031e-02  -1.4436852759603411e-01 7.7213756276044099e-02 -1.7781025016600052e-01 7.7213756276044099e-02 3.5756690658879658e-01 9.4136071784770320e-02 -1.7781025016600052e-01 9.4136071784770320e-02 8.5152612470670765e-03  -6.6183348794900759e-02 -3.7402871113341597e-02 2.6842167359694136e-01 -3.7402871113341597e-02 3.3150089603384511e-03 -2.9536865445557642e-02 2.6842167359694136e-01 -2.9536865445557642e-02 2.4785680151911804e-01  9.5348194030821065e-02 -1.0449885154495143e-02 5.8410051999964782e-02 -1.0449885154495143e-02 -9.3144631982495688e-02 5.7322283464472421e-02 5.8410051999964782e-02 5.7322283464472421e-02 2.9537304973874617e-02  1.7037984874522280e-01 -7.1769113697297575e-03 -5.3134600345610863e-02 -7.1769113697297575e-03 -1.5044905914885517e-01 -3.8663617429330582e-02 -5.3134600345610877e-02 -3.8663617429330582e-02 3.4265684014835179e-02  2.7032924658465789e-04 1.2527563533028379e-02 -4.9162690983780205e-02 1.2527563533028370e-02 -1.8262076430148395e-02 1.8102727519114609e-01 -4.9162690983780205e-02 1.8102727519114609e-01 7.7649782436444117e-02  6.4914481027492530e-03 2.9183109673558427e-02 5.8882865590318870e-02 2.9183109673558427e-02 4.7044561316962150e-02 -8.3655513699104414e-02 5.8882865590318870e-02 -8.3655513699104414e-02 -3.4804084108660836e-02  -1.8860487475090959e-01 -4.3720277765848276e-02 -1.6146615411003240e-01 -4.3720277765848276e-02 1.9009701257281975e-01 -8.3184502937846724e-02 -1.6146615411003240e-01 -8.3184502937846724e-02 1.7221676386212117e-01  -2.1995979744867791e-01 -5.9198129910092753e-02 -1.2883728602367009e-01 -5.9198129910092753e-02 2.6941370783000534e-01 -6.5622529399340962e-02 -1.2883728602367009e-01 -6.5622529399340962e-02 1.4505585311166561e-01  -2.5244222781840697e-01 -1.0408273675220939e-02 -1.1131219653669180e-01 -1.0408273675220939e-02 2.9479103784313332e-01 -3.5913154610715224e-02 -1.1131219653669180e-01 -3.5913154610715224e-02 1.6657111266707228e-01  -2.7659200507873283e-01 2.7525665259051587e-02 1.8443733120544429e-03 2.7525665259051594e-02 2.8275541855944275e-01 -5.6651604690852952e-02 1.8443733120544451e-03 -5.6651604690852952e-02 2.1069024878432938e-01  -2.3641552264233281e-01 -4.3295694788206994e-03 1.2956102612298315e-01 -4.3295694788207054e-03 3.4012258496358599e-01 -7.3497450007407483e-02 1.2956102612298315e-01 -7.3497450007407483e-02 1.1953388961426246e-01  -2.2735267962767383e-01 -4.6595442555925369e-02 1.1482269588742948e-01 -4.6595442555925369e-02 3.9106941501724474e-01 -2.6293352925776958e-02 1.1482269588742948e-01 -2.6293352925776958e-02 5.5913741938569489e-02  -2.4115897705240413e-01 -1.5745418730323126e-02 1.0064528351605818e-01 -1.5745418730323126e-02 4.0220965857642721e-01 -1.6323412181246198e-02 1.0064528351605820e-01 -1.6323412181246198e-02 6.1488169993217823e-02  -2.2014034912587441e-01 8.2356411846226611e-03 1.3208230181805022e-01 8.2356411846226593e-03 3.7851388068704062e-01 -4.3356188764758809e-02 1.3208230181805020e-01 -4.3356188764758809e-02 5.7868740729984804e-02  -1.7418129774163571e-01 3.6071817297638711e-02 1.7138004655706482e-01 3.6071817297638704e-02 3.7114318943100316e-01 -5.8095741650544860e-02 1.7138004655706482e-01 -5.8095741650544860e-02 2.5064453118488463e-02  -1.5326474313488087e-01 -1.3619031407314910e-01 1.8246026287743156e-01 -1.3619031407314910e-01 3.0631611738194703e-01 -1.5334951117082107e-02 1.8246026287743156e-01 -1.5334951117082107e-02 6.0256136080889179e-02  1.5706197183550655e-02 -2.7614860383498097e-01 1.4521353268067438e-01 -2.7614860383498097e-01 1.1902470181176401e-01 5.8136494456736618e-02 1.4521353268067441e-01 5.8136494456736618e-02 7.9916831739354349e-02  2.1737890363147666e-01 -2.1850459561078547e-01 1.1061647960441767e-01 -2.1850459561078547e-01 -1.1059020528140312e-01 1.1644780614129803e-01 1.1061647960441769e-01 1.1644780614129803e-01 1.0476150739138529e-01  3.0286022239695343e-01 -5.1618343750977749e-02 6.8259723772986419e-02 -5.1618343750977749e-02 -1.9767374716430527e-01 1.6891843523346120e-01 6.8259723772986433e-02 1.6891843523346120e-01 1.0911415052782922e-01  2.7262040459555203e-01 1.2136635083130770e-01 -8.2011280609296383e-03 1.2136635083130771e-01 -1.4859368260670358e-01 2.0271758681728538e-01 -8.2011280609296296e-03 2.0271758681728538e-01 9.4846120570320103e-02  1.3134925457295621e-01 2.3346506343224915e-01 -7.4184374308916598e-02 2.3346506343224915e-01 1.3216810571055558e-02 1.9116117307301092e-01 -7.4184374308916598e-02 1.9116117307301086e-01 6.9189691199901260e-02  -3.4752586492778001e-02 2.1426664047068572e-01 -1.3307349236063137e-01 2.1426664047068572e-01 2.0682125066652207e-01 1.5831066003191527e-01 -1.3307349236063135e-01 1.5831066003191527e-01 4.4130078013669492e-02  -2.0322860491087752e-01 -1.7846946078039470e-02 1.4952029692603722e-01 -1.7846946078039470e-02 1.6579426876756836e-01 1.4818343105634275e-02 1.4952029692603719e-01 1.4818343105634275e-02 1.9390556534569653e-01  -2.0906925931062095e-01 -3.9670476387730524e-02 1.3322112254932061e-01 -3.9670476387730524e-02 2.5855380319451965e-01 1.0027870210059769e-02 1.3322112254932061e-01 1.0027870210059766e-02 1.2330113116683898e-01  -2.3795426292121191e-01 -3.9718157285671171e-02 1.1680600476485149e-01 -3.9718157285671171e-02 2.7009996760796984e-01 3.1092875240061782e-02 1.1680600476485149e-01 3.1092875240061775e-02 1.6429050839920181e-01  -2.7657913092626596e-01 -1.6735783372455234e-02 2.3850262855857497e-02 -1.6735783372455230e-02 3.0087619431412949e-01 5.6429998327581270e-02 2.3850262855857490e-02 5.6429998327581304e-02 1.8809235821397324e-01  -2.7199825307285413e-01 4.7345877840140613e-03 -4.8769311953249753e-02 4.7345877840140526e-03 3.3344894395005770e-01 9.2995488509794055e-02 -4.8769311953249746e-02 9.2995488509794055e-02 1.5824040885377391e-01  -2.5271383904378042e-01 -2.2307487807007399e-02 -6.7390037270795344e-02 -2.2307487807007417e-02 3.7087962532872459e-01 1.0941032840288656e-01 -6.7390037270795344e-02 1.0941032840288656e-01 9.8898491591352819e-02  -2.6144039859344226e-01 -1.3343626990254907e-02 -4.9830732839394327e-02 -1.3343626990254900e-02 3.6848165758085055e-01 1.2287433045899845e-01 -4.9830732839394327e-02 1.2287433045899845e-01 1.1190068821322978e-01  -2.6404501146720727e-01 4.6030175253179019e-02 -6.6477941532899057e-02 4.6030175253179026e-02 3.4693355061167841e-01 1.0750186146231044e-01 -6.6477941532899043e-02 1.0750186146231044e-01 1.4168322210333845e-01  -2.1034797867361568e-01 6.4759484298002892e-02 -1.4257703181623435e-01 6.4759484298002878e-02 3.3837524399743280e-01 1.1116647207605686e-01 -1.4257703181623435e-01 1.1116647207605686e-01 9.9163852464729890e-02  -9.2396116221142757e-02 -1.4589825575379311e-03 2.5919956107889458e-01 -1.4589825575379311e-03 1.4267258862989718e-02 -6.5008250886199118e-02 2.5919956107889458e-01 -6.5008250886199118e-02 2.6615691620112669e-01  -8.0976336043438776e-02 3.1843848215111527e-02 2.2041926740912857e-01 3.1843848215111527e-02 -1.6070852844004720e-03 -1.3974122530963692e-01 2.2041926740912857e-01 -1.3974122530963692e-01 2.6925753172849576e-01  -5.9578515658003740e-02 5.9295518765863954e-02 1.8430607417471845e-01 5.9295518765863968e-02 -3.0942500257596775e-02 -1.8449620446240902e-01 1.8430607417471845e-01 -1.8449620446240902e-01 2.8109988458464896e-01  -1.8580768426340301e-02 4.7035515969093021e-02 1.1017642785322081e-01 4.7035515969093021e-02 -6.9559832893824836e-02 -2.2922396272443354e-01 1.1017642785322081e-01 -2.2922396272443354e-01 2.8427274073580827e-01  4.0410795389586704e-04 3.2087800119547566e-02 6.7604496901184086e-02 3.2087800119547566e-02 -9.3211158597068688e-02 -2.5193395344574560e-01 6.7604496901184086e-02 -2.5193395344574560e-01 2.9459523481759625e-01  4.5032493386456852e-03 4.0257512779010435e-03 -2.5807501827176702e-02 4.0257512779010426e-03 -9.9267065564705007e-02 -2.6273032480339403e-01 -2.5807501827176702e-02 -2.6273032480339403e-01 3.0469231943198549e-01  1.1702903589918497e-02 -1.8714233395098655e-02 -8.7620625470065119e-02 -1.8714233395098652e-02 -8.2367461620643859e-02 -2.5879133011604138e-01 -8.7620625470065119e-02 -2.5879133011604138e-01 2.6252093905107143e-01  -1.9874285848722181e-02 -5.2550366063588434e-02 -2.0134419213452845e-01 -5.2550366063588441e-02 -5.3174468890925926e-02 -1.8803652346390501e-01 -2.0134419213452845e-01 -1.8803652346390501e-01 2.8653854849602656e-01  -7.2643770926178464e-02 -4.3560470682385805e-02 -2.5912581165135318e-01 -4.3560470682385805e-02 -2.4397476632106414e-02 -1.0848098501317195e-01 -2.5912581165135318e-01 -1.0848098501317195e-01 3.1641171296599374e-01  8.2747226499507234e-02 3.5813689043732597e-02 3.1331904887306909e-02 3.5813689043732597e-02 -8.5427122596077695e-02 7.7125129877129245e-02 3.1331904887306923e-02 7.7125129877129273e-02 3.4712238921989075e-02  7.0016458255542230e-02 7.5727794443996507e-02 1.5266028595177615e-02 7.5727794443996507e-02 -6.4012876813869912e-02 8.2622160241449610e-02 1.5266028595177615e-02 8.2622160241449610e-02 2.9196510137995905e-02  1.4618734369846823e-02 8.7716054295559287e-02 -1.3957190472190314e-02 8.7716054295559287e-02 -2.0766338932383915e-02 8.6582182412817121e-02 -1.3957190472190314e-02 8.6582182412817121e-02 3.7798696012128721e-02  -2.2923659543999705e-02 9.5977924188995908e-02 -4.7103642264483402e-02 9.5977924188995908e-02 5.1613312852508163e-02 7.7735844731058198e-02 -4.7103642264483402e-02 7.7735844731058198e-02 9.1240742336999633e-03  -6.2761894452204842e-02 6.2119644912106434e-02 -6.5926915434347907e-02 6.2119644912106420e-02 9.6587678446519859e-02 7.0175270587232427e-02 -6.5926915434347907e-02 7.0175270587232427e-02 4.7745362346050483e-03  -8.8160664716450537e-02 2.1087091693386531e-02 -7.8173054849560678e-02 2.1087091693386521e-02 1.0627653804138498e-01 4.8679074496869354e-02 -7.8173054849560678e-02 4.8679074496869347e-02 1.9999983536389192e-02  -7.9734142877107742e-02 -2.3504852538371077e-02 -9.7397932193629091e-02 -2.3504852538371084e-02 1.0747079900103317e-01 3.0938700262066885e-02 -9.7397932193629091e-02 3.0938700262066871e-02 1.5594579280508168e-02  -4.5220918693852932e-02 -7.9204496536733032e-02 -8.3876217856495239e-02 -7.9204496536733046e-02 7.9773725575741541e-02 1.1860803967881333e-03 -8.3876217856495253e-02 1.1860803967881381e-03 -4.2150531037352215e-04  9.4623290675092207e-03 -1.0498905597661651e-01 -8.8759166323826508e-02 -1.0498905597661649e-01 6.2829781442292759e-03 5.8213844107273842e-03 -8.8759166323826494e-02 5.8213844107273824e-03 1.8273629421673612e-02  5.1838699226215638e-02 -4.6476641204178840e-02 -8.0884462160042594e-02 -4.6476641204178840e-02 -7.6599443635702980e-02 -2.8459156186965269e-02 -8.0884462160042594e-02 -2.8459156186965279e-02 4.5449110760482213e-02  1.2763944034786562e-01 -6.6846526348042445e-02 -6.1898439881985477e-02 -6.6846526348042473e-02 -1.1217132056625133e-01 -4.4617313616114943e-02 -6.1898439881985436e-02 -4.4617313616114943e-02 2.8546222762618804e-02  2.0648505502647951e-01 -4.3049617436453011e-02 -7.3863444741761014e-02 -4.3049617436453011e-02 -1.7318730775036140e-01 -1.0129231248967147e-01 -7.3863444741761014e-02 -1.0129231248967147e-01 7.9716264080711891e-02  2.0219288995333806e-01 -3.1653992246402633e-02 -6.5818854596009543e-02 -3.1653992246402633e-02 -1.0564758238370184e-01 -1.5760322542575780e-01 -6.5818854596009543e-02 -1.5760322542575780e-01 2.2783426163035893e-02  1.7143284501975525e-01 -8.3175422888008953e-03 -3.6375312020210389e-02 -8.3175422888008953e-03 -8.0184134825131356e-02 -1.3455552407533497e-01 -3.6375312020210389e-02 -1.3455552407533497e-01 -1.6418446493071739e-02  1.4676129931108015e-01 -1.1084245963552740e-03 -2.8947644048609316e-02 -1.1084245963552740e-03 -1.1730816751058189e-01 -9.1285071600758369e-02 -2.8947644048609323e-02 -9.1285071600758369e-02 2.2930505260491368e-02  1.2331554696679896e-01 -3.1698186917649744e-02 -4.9078022132415931e-02 -3.1698186917649744e-02 -1.5375053391015778e-01 -5.7820019448212051e-02 -4.9078022132415952e-02 -5.7820019448212051e-02 9.3204886750432397e-02  9.5600936435424624e-02 -3.3946615130122038e-02 -3.9355226917639700e-02 -3.3946615130122038e-02 -1.5038857957600285e-01 -2.7749948045889605e-02 -3.9355226917639700e-02 -2.7749948045889605e-02 1.0499773689752014e-01  6.4611855632332280e-02 -5.0010985403756356e-02 -6.9643620716639872e-03 -5.0010985403756356e-02 -1.0716398085223340e-01 4.0228155502770535e-02 -6.9643620716639872e-03 4.0228155502770535e-02 6.8578854711571713e-02  5.0066855946089540e-02 -7.4814620052482184e-02 -3.1336159426477889e-04 -7.4814620052482184e-02 -8.6238925602148311e-02 1.1796032236795273e-01 -3.1336159426477921e-04 1.1796032236795273e-01 9.2117604266560252e-02  4.6981645215753154e-02 -6.1968263153045829e-02 -1.1799880416640115e-02 -6.1968263153045815e-02 -1.0161237726702588e-01 1.5492810356154257e-01 -1.1799880416640110e-02 1.5492810356154257e-01 1.3849381062712932e-01  8.3760203374775802e-03 9.5396084829781191e-03 -1.5535092958611973e-02 9.5396084829781191e-03 -2.3062110331313092e-02 1.7133552047075970e-01 -1.5535092958611973e-02 1.7133552047075970e-01 5.9562783085574181e-02  1.3140992621602735e-02 3.1682114105991322e-03 9.0437965707091065e-03 3.1682114105991200e-03 -2.4985511291648985e-02 1.5729216723735123e-01 9.0437965707091065e-03 1.5729216723735123e-01 4.5701440893939918e-02  1.8173580822995195e-02 -8.7155840839337022e-03 4.1296396768922938e-02 -8.7155840839336987e-03 -2.9327625497728702e-02 1.5088134175453638e-01 4.1296396768922938e-02 1.5088134175453638e-01 4.5572620632095988e-02  2.3991761183116689e-02 -2.1433855750057830e-02 6.1643739825705444e-02 -2.1433855750057830e-02 -2.0390685311621533e-02 1.3490982702640200e-01 6.1643739825705444e-02 1.3490982702640200e-01 3.0090068935963787e-02  1.8299901104674800e-02 -1.7795919798007757e-02 8.6271318366331132e-02 -1.7795919798007757e-02 -1.7336752899471786e-02 1.1810030228809537e-01 8.6271318366331132e-02 1.1810030228809537e-01 2.7079789017177950e-02  4.6325085203446116e-02 -1.2166390496949791e-02 7.7611387809494323e-02 -1.2166390496949791e-02 3.5984081076668285e-04 8.8519466772207123e-02 7.7611387809494323e-02 8.8519466772207137e-02 -3.2234409957982525e-02  5.0858240050061537e-02 -1.9520010314715910e-02 9.1882791442580269e-02 -1.9520010314715910e-02 6.2860045687983699e-03 5.1855109651311765e-02 9.1882791442580269e-02 5.1855109651311765e-02 -4.2615376897815353e-02  2.0825929492646857e-02 -3.7909460352741550e-02 1.2155064705771851e-01 -3.7909460352741557e-02 2.0351834440042824e-02 3.9274701608142885e-02 1.2155064705771851e-01 3.9274701608142885e-02 -1.2276719166259793e-02  2.7969642538370466e-02 -4.0743187109811702e-02 1.1038857565941643e-01 -4.0743187109811702e-02 4.2252499595218013e-02 4.0107267729343130e-03 1.1038857565941643e-01 4.0107267729343043e-03 -4.8165900786647016e-02  1.3589212230059589e-02 -4.2193298299040179e-02 1.1129971242814128e-01 -4.2193298299040179e-02 6.0689773279428559e-02 -1.3548383404680349e-02 1.1129971242814128e-01 -1.3548383404680347e-02 -5.1383391420260195e-02  -1.4885170697255586e-02 -2.5363323982718806e-02 1.0251569932179702e-01 -2.5363323982718806e-02 7.1807932569949828e-02 -4.3881197886867757e-02 1.0251569932179705e-01 -4.3881197886867757e-02 -3.3724941974725038e-02  -2.4581503201510275e-02 5.4060202985847386e-03 1.0005350579326062e-01 5.4060202985847386e-03 5.9069011353452466e-02 -6.1207567494765594e-02 1.0005350579326062e-01 -6.1207567494765594e-02 -6.7791513252103194e-03  6.0441620170464455e-03 8.5749525657924357e-03 6.4987007987312592e-02 8.5749525657924357e-03 6.8321056643989769e-02 -6.8447424890134195e-02 6.4987007987312592e-02 -6.8447424890134195e-02 -5.6607765229513614e-02  1.2368440732324846e-02 -3.3941041835458027e-02 -9.0275549598518804e-03 -3.3941041835458027e-02 8.5649336061822123e-02 -8.9952145134320732e-02 -9.0275549598518804e-03 -8.9952145134320732e-02 -8.4488590053753657e-02  -1.7724023718560303e-02 2.6990999723213817e-02 4.6192802217600332e-02 2.6990999723213817e-02 4.9634667687123248e-02 -8.6090974045080329e-02 4.6192802217600332e-02 -8.6090974045080329e-02 -1.1537057564049677e-02  8.8182358575265657e-02 -4.3050579317246013e-02 4.1449271813226447e-02 -4.3050579317246013e-02 -1.0684721218810880e-01 3.9380836024677242e-02 4.1449271813226447e-02 3.9380836024677228e-02 5.1898810887990969e-02  8.6472672186150235e-02 -4.4946966716236415e-02 5.3069642025461349e-02 -4.4946966716236415e-02 -1.1687801096095722e-01 4.7557805548652868e-03 5.3069642025461349e-02 4.7557805548652868e-03 6.2245198132096433e-02  1.0770969095106833e-01 -7.0476631824818364e-02 5.5611833991301519e-02 -7.0476631824818364e-02 -1.4175598772030282e-01 -4.3164028925020545e-03 5.5611833991301519e-02 -4.3164028925020545e-03 8.8877430602775948e-02  1.3895787731305231e-01 -7.1668861116622504e-02 6.0851768279173976e-02 -7.1668861116622504e-02 -1.6569444835223651e-01 1.7168155054345415e-02 6.0851768279173976e-02 1.7168155054345415e-02 1.0601556311989238e-01  1.2733316163290004e-01 -6.0628818741152724e-02 5.9056368236208620e-02 -6.0628818741152724e-02 -1.6146618276269389e-01 3.0768905217141186e-02 5.9056368236208606e-02 3.0768905217141186e-02 1.0771396174867157e-01  1.1546230227817839e-01 -4.7244488462850273e-02 4.6272556807143927e-02 -4.7244488462850273e-02 -1.6266798957558218e-01 2.4049305780461622e-02 4.6272556807143927e-02 2.4049305780461622e-02 1.1246778148822643e-01  8.8350772798421906e-02 -3.8964538914310995e-02 3.6890985658619292e-02 -3.8964538914310995e-02 -1.5601339538571338e-01 1.1239224266100906e-02 3.6890985658619292e-02 1.1239224266100906e-02 1.2380744755175463e-01  5.9919847307667626e-02 -3.6593295065598427e-02 6.5781625894696313e-02 -3.6593295065598427e-02 -1.3870863221235827e-01 -9.0661558522713171e-03 6.5781625894696313e-02 -9.0661558522713171e-03 1.2334785670228253e-01  4.6044871401990345e-02 -2.2579422812853453e-02 7.1730297456849695e-02 -2.2579422812853453e-02 -5.4312606195785484e-02 -6.9688279027293742e-03 7.1730297456849695e-02 -6.9688279027293742e-03 1.4105882371638892e-02  1.5420661951488079e-01 5.2919670225768267e-02 -3.5202274876930791e-02 5.2919670225768267e-02 -1.3748282925405927e-01 -7.3647180811408378e-02 -3.5202274876930784e-02 -7.3647180811408378e-02 4.0724360876550368e-02  1.2663758740865302e-01 1.3418175664235563e-01 -1.2842138588817373e-02 1.3418175664235565e-01 -9.9621201595079062e-02 -8.0051788679301863e-02 -1.2842138588817368e-02 -8.0051788679301863e-02 4.2142467422780140e-02  3.9367189741877959e-02 1.5885476525284326e-01 1.4153917809487588e-02 1.5885476525284326e-01 -3.7199888973997321e-02 -7.6940778907232027e-02 1.4153917809487599e-02 -7.6940778907231999e-02 6.2472332450976234e-02  -5.2970186652312290e-02 1.5575612386985646e-01 3.1667001784704260e-02 1.5575612386985646e-01 5.6930083641752158e-02 -7.3349839990946838e-02 3.1667001784704260e-02 -7.3349839990946838e-02 6.1920378882643970e-02  -1.1065432427392971e-01 9.6353570966723062e-02 5.0323007449174770e-02 9.6353570966723062e-02 9.0170922900323247e-02 -6.9775823052946800e-02 5.0323007449174770e-02 -6.9775823052946800e-02 7.6478660656811623e-02  -1.2360999474901288e-01 3.5649452393256821e-02 7.2273146890540541e-02 3.5649452393256821e-02 1.2138224997357069e-01 -5.1141487402426217e-02 7.2273146890540485e-02 -5.1141487402426217e-02 5.3985124600901921e-02  -9.8676826861366043e-02 -3.6827555744404571e-02 8.6948362942808888e-02 -3.6827555744404564e-02 9.9979311048768907e-02 -2.9897482377256160e-02 8.6948362942808888e-02 -2.9897482377256160e-02 3.8066256381587671e-02  -9.3362489028049944e-02 -5.6172209529532481e-02 7.3299896810973403e-02 -5.6172209529532481e-02 7.0506208227317776e-02 -2.4486560556478229e-02 7.329989