<?xml version="1.0"?>
<VTKFile type="UnstructuredGrid"  version="0.1"  >
<UnstructuredGrid>
<Piece  NumberOfPoints="1268" NumberOfCells="4847">
<Points>
<DataArray  type="Float64"  NumberOfComponents="3"  format="ascii">1.994716987487452 0.01317707561264319 -1.202466945460223e-11  1.374072606111497 -0.08614134488653273 -5.388997575085332  -1.285941478930618 0.1916557790035214 -5.691288663606836  -1.59032616235459 -0.4515196446136259 1.626303258728257e-17  0.4950030257755884 2.521650519233041 -5.495391852657774  -0.4107718940653654 -2.429115409112172 -5.58531208084276  -0.9314707163843408 -3.006923447963563 4.87890977618477e-17  1.161824811771535 2.948440156756841 -3.391384395534658e-14  2.146749234505421 0.002696741478414759 -0.5615078450779066  2.330988047973839 -0.000873250973709995 -1.113141311680313  2.540713632977715 -0.1384292375506191 -1.637427654548237  2.645241452520652 -0.2872312815961211 -2.18637082393926  2.504842461151312 -0.2752146673621067 -2.746850782899552  2.287876352721185 -0.2088259978706829 -3.283011632728322  2.137771360922677 -0.2093380261300688 -3.844996501809416  1.970142554575494 -0.2193701374385486 -4.401638277082749  1.701580801829277 -0.1696632515169769 -4.915066532844666  1.398049690886424 0.4419377546899956 -5.387643705321969  1.183972204621215 0.9208338616597355 -5.413149504812257  0.7621482426349403 1.234356207118232 -5.461782499987256  0.2539805730796886 1.370727420898931 -5.519751404145364  -0.2689415860383004 1.319053689498898 -5.578906487138381  -0.7357170559581984 1.076180709179107 -5.631191713357971  -1.086003096318238 0.6812820615514149 -5.669884670156524  -1.65706961757681 -0.5275128747266272 -0.6240725009925172  -1.829082870387909 -0.8347372240299333 -1.153553189134448  -2.030635262011336 -1.097965926806997 -1.693320688638939  -2.148557703924963 -0.9683820133813712 -2.295450526931833  -2.119047321408695 -0.7521727279271558 -2.890676896601294  -1.972500555455803 -0.7106310836492745 -3.509380855831461  -1.885028119342598 -0.4902108162504233 -4.093718100793141  -1.832050776792238 -0.1313823297003599 -4.617858136599065  -1.636180550340053 0.1151199882480144 -5.165527944859976  -1.540434086810702 0.1014447694855235 -7.644826989049428e-17  -1.339902801239663 0.6191128040412099 2.218327606354497e-17  -0.9949589579071262 1.053322092476122 2.12059320661159e-17  -0.5243975458638882 1.346285776146202 7.754217898549941e-16  0.01399251627036286 1.481823287560149 3.252316763596149e-17  0.5696211504784076 1.47677978548424 -7.207855520904863e-17  1.105448032340458 1.331487337928338 1.951563910473908e-16  1.561367740818086 1.018090979386763 -2.179459114756194e-16  1.860006992193919 0.551530302300456 1.369433074745588e-16  -0.152869286718376 2.506583809965366 -5.568804938302105  -0.7781210310064858 2.335338381675429 -5.639249366957451  -1.340550096787874 2.011723800088065 -5.702178028336585  -1.803922993566052 1.555830170950866 -5.753534898075912  -2.144678763029901 1.000979069722826 -5.790734833138769  -2.346903237737564 0.3811866585909049 -5.812061421922149  -2.406990243842066 -0.2684488461825228 -5.817196438260218  -2.318433628103212 -0.9144163570965761 -5.805488779558074  -2.059391262210163 -1.511004864267824 -5.774580158166454  -1.615755841275718 -1.983465489741105 -5.72306417450185  -1.043145925381342 -2.287058241276404 -5.657361969815248  -0.6986882361605687 -2.420627649803484 -5.024556445072709  -0.8272574030199392 -2.685291244074475 -4.476216325063944  -0.8113210073272845 -3.118860027310894 -4.01596683617901  -0.7618552434953355 -3.481598098596065 -3.504026669625047  -0.7509882165597778 -3.609083979854663 -2.886473298216772  -0.7986167670519319 -3.732483084086931 -2.268445488219849  -0.8276969497603353 -3.810997815301134 -1.64593496945388  -0.7425506523451623 -3.557242155569485 -1.078322423839125  -0.7147449622328144 -3.21189056194362 -0.5511080601316157  -1.482234509376526 -2.778582553401298 -5.854479658363816e-16  -1.970737176894139 -2.437284655419533 2.764697292186607e-16  -2.362818572203899 -1.988727212877528 2.439101268600111e-16  -2.642390785384022 -1.462244173776716 5.051059276813266e-16  -2.812149102113852 -0.89052423419162 2.276851973687203e-16  -2.877946727920729 -0.2976446157883296 -1.219909928720168e-16  -2.842947107925845 0.2978601752284433 4.065446096494693e-17  -2.70313036896374 0.8776122116387211 -5.041496169361013e-16  -2.452324348076021 1.418519584933707 4.379274460317988e-16  -2.098265626135573 1.898294456130726 1.951060033519619e-16  -1.658391347368763 2.301023318502569 -1.789574489620802e-16  -1.154148079923361 2.619757341302747 -2.081203863085907e-15  -0.6042202207747882 2.851073703499478 -3.577841418755692e-16  -0.02416138323675775 2.990516581461941 4.065982498622179e-16  0.5710641261211448 3.028216945076794 -1.46882551317968e-16  0.6414151130412097 2.696325287154043 -4.983333021490838  0.771852374565919 2.778456367279237 -4.445188759107248  0.8805845204306011 2.73078881179073 -3.897720120696569  0.9481597620953167 2.69798349057175 -3.343104559074628  0.9815370707090804 2.778214865778854 -2.789250505759619  1.013475345489448 2.861817704396183 -2.235671116027784  1.055849759321274 2.898356228459238 -1.677594140621302  1.093646323460014 2.92793989028903 -1.118725590781912  1.124098871622056 2.957526991478201 -0.5594169689370629  0.2477015793419729 -2.415655802610486 -5.510682951113449  0.8844491790088972 -2.245867158009595 -5.438931443942415  1.464891069119211 -1.932330028996181 -5.373934600293736  1.955087092649627 -1.489613175355717 -5.319502697776375  2.318355026965356 -0.937054784961175 -5.279744576064058  2.524994411863564 -0.307899182343253 -5.257941630215678  2.574632820450045 0.3531084349228537 -5.254020561031156  2.465743861849647 1.006614152640354 -5.268052816559671  2.183897076015212 1.604484044160622 -5.301550147358176  1.722560240631265 2.07491696755195 -5.35506775502591  1.13806318635062 2.378906583716481 -5.422118662603529  1.742182153284979 2.73179858498085 5.854691697147836e-16  2.262480931380501 2.395264875892136 -2.601681534737615e-16  2.698000706832733 1.954727370266727 -3.903113804560263e-16  3.021530388777258 1.426473918441798 1.707421408502106e-16  3.223363606607101 0.8405687193648443 -2.844806418042028e-16  3.305434793487241 0.2261994274297442 -4.472186606099012e-16  3.269241566985055 -0.3926051469820059 3.171555149681837e-16  3.113478077610213 -0.9924495549400153 3.510830505762065e-16  2.840400132149515 -1.548806515270482 -1.707368614952523e-16  2.466120284856568 -2.042983582774378 9.732831365154574e-17  2.008125599488538 -2.460814027017948 -3.577575055983979e-16  1.482521285196868 -2.789563899556613 -4.886146623064541e-17  0.9057866143556688 -3.01678997208197 -2.439392613813594e-16  0.2964958724913082 -3.130681163554852 3.414395345104792e-16  -0.32338307292875 -3.126978161260848 2.926910878106614e-16  -1.29067345658392 -0.3506098753383553 -5.690421630247788  -1.068897680254163 -0.8451623229646739 -5.663999894259847  -0.6782440885714781 -1.219621806060448 -5.6187489875115  -0.168757542531344 -1.390394566692369 -5.560546895724229  0.3611301401510615 -1.294122251639114 -5.500717901478111  0.8191548613516448 -1.005201308695582 -5.449538098373106  1.16817203978903 -0.5892762115769014 -5.411042670828763  1.960898302630318 -0.551652302616722 -8.131516293641286e-17  1.751009740180289 -1.077278642631261 7.445724005953314e-16  1.394016468000002 -1.516729095803803 1.136104663605282e-15  0.9227767039454898 -1.830301465573364 3.434443593283319e-16  0.3780412068884804 -1.984007749105097 8.617772484356591e-16  -0.1885780664025548 -1.977994130030172 2.357202029695971e-16  -0.7327557451871473 -1.821291124380143 1.942410916395698e-17  -1.191068596016128 -1.491774666596192 2.975009434367945e-16  -1.480405544894888 -1.006855825633415 6.954512630084263e-16  -1.812414118534285 0.2561131097252937 -2.664867827914479  2.421751940242729 0.6298287624476981 -1.933377861698098  0.7556418177061754 1.42269463362527 -4.617654324361507  0.003134751711410342 1.574821943356493 -0.9318675177876981  1.015098001669947 1.51699057942374 -0.9441494884276413  0.6193243625380082 1.764115149411371 -1.862230514405671  -0.4757031201037318 1.549728101933577 -1.958273018773558  0.1126459993007786 1.698838152590054 -2.957602797129454  -0.3405660022430232 1.569615851499001 -4.678135257405353  1.818199099779932 0.7365610114574719 -3.763003518505052  -0.9541815370276669 1.23451227632913 -2.875526912859068  -1.269464226480212 1.016489154450913 -4.672047638709048  1.301562892980348 1.557566760682666 -2.802482532053872  -0.7813756340336595 1.414221906310649 -3.725761628685261  -1.58370798409762 0.5643609111372817 -3.581008460136619  -0.988817348255397 1.158392548936659 -1.014254585170146  -1.607700527190565 0.2800106654898483 -1.030081240453645  -1.388203055800784 0.7951310659851955 -1.943712885648593  0.8261955720421881 1.570157055202129 -3.620947225245673  1.681455131778566 1.410849015379531 -1.876189895849114  1.878739160554727 0.943024132521903 -0.9866418074548234  2.103426639579445 1.000735947836943 -2.593434794762663  1.62623803052506 0.6468498306152269 -4.727220189271843  -1.882943490361709 -0.1546739965127431 -1.761716647663214  0.05868355051519467 1.656538949473053 -3.863342338366238  2.465845305360337 0.2632819454094029 -2.663569745038379  1.994842599423799 0.5019775153043848 -0.4779055074204815  2.1671824130763 0.4980244878585698 -1.027636182799239  1.710213566460811 0.9718796190568162 -0.4957578884333736  1.845584590132108 0.2253887364997403 -4.583879812097906  1.579035044615276 0.2924902970866011 -5.101748935835201  1.409777182251665 0.7868327264427526 -5.07202467441607  -1.039178737375989 1.089168173550246 -5.170746090958521  -1.377687418630729 0.6683636420802941 -5.233117919580046  -1.641402128985454 0.4875654733502939 -4.648722230221863  -1.765467255797776 -0.2695484060062747 -1.079683539430899  -1.617858736076732 -0.08318463488274264 -0.5123563299218489  -1.474019211051276 0.4496529111656123 -0.5150171376928306  2.417677350191343 0.3274903893149403 -1.506992657970159 
[...]
<PointData  Tensors="strain"> 
<DataArray  type="Float64"  Name="strain"  NumberOfComponents="9" format="ascii">-4.8003365022934126e-02 -1.0017861464572630e-02 -2.6648833133595123e-01 -1.0017861464572630e-02 1.0134981127476149e-02 -3.0511678406217737e-02 -2.6648833133595123e-01 -3.0511678406217737e-02 1.9940648469807581e-01  -1.7856768099541062e-01 4.5668184359743333e-02 1.4109276000306639e-01 4.5668184359743333e-02 3.5234494527236621e-01 -8.0257106537586900e-02 1.4109276000306639e-01 -8.0257106537586900e-02 1.8292104692145466e-02  -1.4063071067358651e-01 7.1332898107258250e-02 -1.6768374489209931e-01 7.1332898107258264e-02 3.3581740656824072e-01 8.9562158050419255e-02 -1.6768374489209931e-01 8.9562158050419241e-02 2.2796055127119997e-03  -6.6296769628178223e-02 -3.6249213948333560e-02 2.4782551805752273e-01 -3.6249213948333560e-02 3.1614608150581625e-03 -3.3888497988292327e-02 2.4782551805752273e-01 -3.3888497988292327e-02 2.2383491305505862e-01  9.0065031184129882e-02 -9.4460839172431990e-03 5.4595320290805327e-02 -9.4460839172432007e-03 -8.7282758545543557e-02 5.1269263269602662e-02 5.4595320290805327e-02 5.1269263269602662e-02 2.4288890736062788e-02  1.6158282857599460e-01 -6.6124348795306544e-03 -5.1260311606457332e-02 -6.6124348795306492e-03 -1.4145278815133511e-01 -3.5332930215694072e-02 -5.1260311606457332e-02 -3.5332930215694072e-02 2.8101962945774286e-02  3.0780860198325434e-03 1.5319249974834682e-02 -5.0876356627183809e-02 1.5319249974834675e-02 -1.8774292208851909e-02 1.6516743099320383e-01 -5.0876356627183809e-02 1.6516743099320383e-01 6.5733956867917082e-02  5.9848412144880335e-03 2.8622855789432754e-02 5.5893107129090951e-02 2.8622855789432754e-02 4.5529202564958654e-02 -7.3181638164973029e-02 5.5893107129090951e-02 -7.3181638164973029e-02 -3.5647284871028327e-02  -1.8400353602663932e-01 -4.1205751363801120e-02 -1.4783432374652108e-01 -4.1205751363801120e-02 1.7599981257627606e-01 -7.7532528242538132e-02 -1.4783432374652108e-01 -7.7532528242538132e-02 1.5894491687137152e-01  -2.1239715747370644e-01 -5.4695975839889152e-02 -1.1931236575498470e-01 -5.4695975839889152e-02 2.4971889203716824e-01 -6.2902928365239044e-02 -1.1931236575498470e-01 -6.2902928365239058e-02 1.3339810979901745e-01  -2.4310356570209521e-01 -9.9328632652821557e-03 -1.0358663682560221e-01 -9.9328632652821557e-03 2.7519380974503360e-01 -3.5122670490949255e-02 -1.0358663682560222e-01 -3.5122670490949255e-02 1.5300948529220704e-01  -2.6588818125558616e-01 2.6024345757224284e-02 1.8592756450207971e-03 2.6024345757224284e-02 2.6437898734782711e-01 -5.4961249429972076e-02 1.8592756450207984e-03 -5.4961249429972076e-02 1.9455326442665993e-01  -2.2787774763931692e-01 -4.3634438351569122e-03 1.2154788822184166e-01 -4.3634438351569001e-03 3.1978849280151606e-01 -7.0946965169618847e-02 1.2154788822184166e-01 -7.0946965169618847e-02 1.0747784127233367e-01  -2.1843910889647697e-01 -4.5166249257734464e-02 1.0772712656308983e-01 -4.5166249257734464e-02 3.6693567568601071e-01 -2.5399321923001691e-02 1.0772712656308983e-01 -2.5399321923001688e-02 4.7171558993667921e-02  -2.3157123691286130e-01 -1.5996172909062165e-02 9.4697107866558175e-02 -1.5996172909062165e-02 3.7792249058539340e-01 -1.5809346570827540e-02 9.4697107866558175e-02 -1.5809346570827540e-02 5.2306390381175280e-02  -2.1201976354967200e-01 6.3942365929806587e-03 1.2430055690354495e-01 6.3942365929806587e-03 3.5633794341852226e-01 -4.1838688417484532e-02 1.2430055690354494e-01 -4.1838688417484532e-02 4.9008948219614719e-02  -1.6892779020640553e-01 3.2560185344529001e-02 1.6228750346071039e-01 3.2560185344529001e-02 3.4776228648880270e-01 -5.5690936863031178e-02 1.6228750346071039e-01 -5.5690936863031178e-02 1.9727836705676505e-02  -1.4800822814288100e-01 -1.2985387505759818e-01 1.7317402881106822e-01 -1.2985387505759813e-01 2.8500823015811411e-01 -1.5636875678496906e-02 1.7317402881106822e-01 -1.5636875678496906e-02 5.2968679869516026e-02  1.1655884278865422e-02 -2.6154916397999706e-01 1.3803304275954542e-01 -2.6154916397999717e-01 1.0923559315512049e-01 5.3899688713556958e-02 1.3803304275954542e-01 5.3899688713556958e-02 7.0168619966803458e-02  2.0219670552523000e-01 -2.0585019859110881e-01 1.0541789361421017e-01 -2.0585019859110887e-01 -1.0875316138797325e-01 1.0825639520929282e-01 1.0541789361421017e-01 1.0825639520929281e-01 9.3054547681696728e-02  2.8238138836314280e-01 -4.7725850396208330e-02 6.5564653011680171e-02 -4.7725850396208323e-02 -1.9077410722600063e-01 1.5893522706802862e-01 6.5564653011680171e-02 1.5893522706802862e-01 9.7760123411003624e-02  2.5366972577402563e-01 1.1494545597669413e-01 -6.9381398720251650e-03 1.1494545597669412e-01 -1.4502799724181922e-01 1.9148374919442421e-01 -6.9381398720251676e-03 1.9148374919442418e-01 8.5463867427995152e-02  1.1889984240940323e-01 2.2043276105019746e-01 -6.7972677687069549e-02 2.2043276105019746e-01 1.0448477336647662e-02 1.8131044674883753e-01 -6.7972677687069549e-02 1.8131044674883751e-01 5.9032842970362452e-02  -3.9371308980803134e-02 2.0166082939740126e-01 -1.2418967878232585e-01 2.0166082939740126e-01 1.9378070013534582e-01 1.5029065403975186e-01 -1.2418967878232585e-01 1.5029065403975186e-01 3.7097006055678436e-02  -1.9691093358430958e-01 -1.3885225378976801e-02 1.3473065020844152e-01 -1.3885225378976801e-02 1.5256126750692975e-01 1.3892440127373819e-02 1.3473065020844152e-01 1.3892440127373819e-02 1.7860061446839307e-01  -2.0166154073778897e-01 -3.4958625220194148e-02 1.2176016871135578e-01 -3.4958625220194148e-02 2.4023888777947527e-01 9.0521108575812703e-03 1.2176016871135578e-01 9.0521108575812633e-03 1.1136961469135007e-01  -2.2955006833694566e-01 -3.7374149609048023e-02 1.0653374634000054e-01 -3.7374149609048023e-02 2.5114026797090500e-01 2.9696777075732903e-02 1.0653374634000054e-01 2.9696777075732907e-02 1.5124424339453885e-01  -2.6519327295508965e-01 -1.8167392094924045e-02 2.1580280146257746e-02 -1.8167392094924045e-02 2.8040337988840797e-01 5.3789407233249646e-02 2.1580280146257760e-02 5.3789407233249639e-02 1.7301994683025451e-01  -2.6079714239483237e-01 2.5376837451457097e-03 -4.6340995800174513e-02 2.5376837451457266e-03 3.1150977275470026e-01 8.8935657845314015e-02 -4.6340995800174520e-02 8.8935657845314001e-02 1.4485737586083594e-01  -2.4190009651256200e-01 -2.3650752176776989e-02 -6.3902129315585907e-02 -2.3650752176776983e-02 3.4717792791383961e-01 1.0382913922770715e-01 -6.3902129315585907e-02 1.0382913922770716e-01 8.8374849569804848e-02  -2.4937400106027949e-01 -1.4577899984941836e-02 -4.8731356689541247e-02 -1.4577899984941861e-02 3.4454680762614392e-01 1.1653672354452312e-01 -4.8731356689541275e-02 1.1653672354452312e-01 1.0006316358462396e-01  -2.5291679048058829e-01 4.1799474325605213e-02 -6.4842955958726939e-02 4.1799474325605206e-02 3.2504461310530341e-01 1.0171689028563745e-01 -6.4842955958726939e-02 1.0171689028563745e-01 1.2834238535511766e-01  -2.0344026721577690e-01 5.9954318572827084e-02 -1.3474141596468472e-01 5.9954318572827084e-02 3.1738667959517475e-01 1.0596723956736824e-01 -1.3474141596468472e-01 1.0596723956736824e-01 8.8690238694621476e-02  -9.4190817570684232e-02 -1.6709414951407951e-04 2.3837774231272929e-01 -1.6709414951407951e-04 1.3872684624695762e-02 -6.3897602146919502e-02 2.3837774231272929e-01 -6.3897602146919502e-02 2.4531969129601369e-01  -8.0101773988934449e-02 3.1686181072856957e-02 2.0218856807098720e-01 3.1686181072856957e-02 -3.0677118729132468e-03 -1.3266840171132160e-01 2.0218856807098720e-01 -1.3266840171132160e-01 2.4623138399179290e-01  -5.9865301748496615e-02 6.0623286826328247e-02 1.6771965023767724e-01 6.0623286826328247e-02 -3.2009434861436870e-02 -1.7214299976478331e-01 1.6771965023767724e-01 -1.7214299976478331e-01 2.5943030939579803e-01  -1.8551570809124281e-02 4.6448599846809768e-02 9.8236882405902295e-02 4.6448599846809768e-02 -6.8677115451271781e-02 -2.1451604921870551e-01 9.8236882405902295e-02 -2.1451604921870551e-01 2.5925955791029415e-01  3.4164373697316629e-04 3.2335998457786223e-02 5.9148935857074508e-02 3.2335998457786223e-02 -9.4293029425018798e-02 -2.3355294335491661e-01 5.9148935857074508e-02 -2.3355294335491661e-01 2.7187210694938269e-01  4.3616073103408736e-03 3.0885521381808462e-03 -2.8585351627112690e-02 3.0885521381808453e-03 -9.8810876840572062e-02 -2.4314889955077679e-01 -2.8585351627112690e-02 -2.4314889955077679e-01 2.7955590973940664e-01  1.1472665998677243e-02 -1.9728814794599800e-02 -8.3853474463654321e-02 -1.9728814794599800e-02 -8.4912552254935700e-02 -2.3717151019310359e-01 -8.3853474463654334e-02 -2.3717151019310359e-01 2.4117729017081868e-01  -2.0338797243691160e-02 -5.1999977479550319e-02 -1.9201889768627933e-01 -5.1999977479550319e-02 -5.1783806872179886e-02 -1.7063757133930904e-01 -1.9201889768627933e-01 -1.7063757133930904e-01 2.5984685657770384e-01  -7.1845016754923802e-02 -4.3190970746468521e-02 -2.4463188192281046e-01 -4.3190970746468521e-02 -2.4191581289400691e-02 -9.4300363476248511e-02 -2.4463188192281046e-01 -9.4300363476248511e-02 2.8917483306671360e-01  7.6804187108711966e-02 3.4287655458036255e-02 3.1781872829359153e-02 3.4287655458036255e-02 -7.8782037136825175e-02 7.1829197768562211e-02 3.1781872829359153e-02 7.1829197768562211e-02 2.9544682313156496e-02  6.5921878433292461e-02 7.0950939469563976e-02 1.6792485653535152e-02 7.0950939469563976e-02 -6.1403853712174085e-02 7.6761205848809924e-02 1.6792485653535149e-02 7.6761205848809924e-02 2.6247268373415816e-02  1.2135978484105856e-02 8.1634653422589520e-02 -9.4480047891946535e-03 8.1634653422589520e-02 -1.9592722495286471e-02 8.1062154071483331e-02 -9.4480047891946535e-03 8.1062154071483331e-02 3.4227607484425986e-02  -2.3884605514372107e-02 8.9585844464239464e-02 -4.3391950058062005e-02 8.9585844464239464e-02 4.9833462240434917e-02 7.2833578314963968e-02 -4.3391950058062005e-02 7.2833578314963968e-02 6.8402977192461509e-03  -6.0936441537179711e-02 5.7989085711330920e-02 -6.0589087458388688e-02 5.7989085711330934e-02 9.2324271589407994e-02 6.5714707999798019e-02 -6.0589087458388688e-02 6.5714707999798019e-02 2.4413657302969835e-03  -8.3613919489926580e-02 1.9109513850058484e-02 -7.2200108109034697e-02 1.9109513850058463e-02 1.0037299392862822e-01 4.6237612034933595e-02 -7.2200108109034725e-02 4.6237612034933595e-02 1.6465695554838695e-02  -7.5594406778609069e-02 -2.2675857231828356e-02 -8.9707835115510060e-02 -2.2675857231828359e-02 9.9500922874867642e-02 2.9403003728561167e-02 -8.9707835115510073e-02 2.9403003728561177e-02 1.3258196675230496e-02  -4.3414595474528035e-02 -7.4918049842181686e-02 -7.7102921725810944e-02 -7.4918049842181686e-02 7.5528367060606172e-02 1.5340625764582313e-03 -7.7102921725810944e-02 1.5340625764582339e-03 -2.4295318125560884e-03  6.6543954206480316e-03 -9.7462420886852544e-02 -8.3342736115328386e-02 -9.7462420886852530e-02 5.9769559845983889e-03 8.6769265151463836e-03 -8.3342736115328372e-02 8.6769265151463836e-03 1.6846491034411298e-02  4.7972676370728495e-02 -4.1326292869192101e-02 -7.7788368253908988e-02 -4.1326292869192094e-02 -7.2285616534946223e-02 -2.2522110702871398e-02 -7.7788368253908988e-02 -2.2522110702871408e-02 4.1281101661405778e-02  1.2043884615716835e-01 -5.9929421564854236e-02 -6.1171662534560904e-02 -5.9929421564854257e-02 -1.0623014980936532e-01 -4.1945936755568354e-02 -6.1171662534560897e-02 -4.1945936755568340e-02 2.4773968215602231e-02  1.9605233663433858e-01 -4.0526096979708055e-02 -7.0976938044113105e-02 -4.0526096979708062e-02 -1.6746216120501978e-01 -9.5341661426524407e-02 -7.0976938044113091e-02 -9.5341661426524435e-02 7.3841010514537161e-02  1.9210377686416902e-01 -2.8108181461253986e-02 -6.3046917326324101e-02 -2.8108181461253975e-02 -1.0289154988913742e-01 -1.5042003877650445e-01 -6.3046917326324101e-02 -1.5042003877650445e-01 1.9101413049276834e-02  1.6108048407492395e-01 -6.6055711638014413e-03 -3.5807813413153249e-02 -6.6055711638014439e-03 -7.7086009346919240e-02 -1.2661365941746996e-01 -3.5807813413153249e-02 -1.2661365941746996e-01 -1.7658927910053964e-02  1.3803664784615186e-01 1.3156488535785843e-03 -2.7939248244824830e-02 1.3156488535785763e-03 -1.1027280482973006e-01 -8.5172613334067213e-02 -2.7939248244824830e-02 -8.5172613334067213e-02 1.7708792030231527e-02  1.1605103060631386e-01 -2.8978696832198846e-02 -4.8313319105053230e-02 -2.8978696832198853e-02 -1.4562494688346736e-01 -5.3667550994878584e-02 -4.8313319105053230e-02 -5.3667550994878584e-02 8.4807344702386100e-02  9.0399436933578076e-02 -3.1139046777011022e-02 -3.8800615177581051e-02 -3.1139046777011022e-02 -1.4142455271841628e-01 -2.7130511214756257e-02 -3.8800615177581051e-02 -2.7130511214756257e-02 9.4592689200833122e-02  6.0051655597883634e-02 -4.5877076387468262e-02 -7.0147452383127916e-03 -4.5877076387468262e-02 -9.8679079231304145e-02 3.6558942480449406e-02 -7.0147452383127916e-03 3.6558942480449406e-02 5.9466580120927426e-02  4.5378270786736577e-02 -7.2430230946265953e-02 -3.4304743297224624e-04 -7.2430230946265953e-02 -7.8942614969630703e-02 1.1177259574685994e-01 -3.4304743297224635e-04 1.1177259574685994e-01 8.2453176290210498e-02  4.4373638768179735e-02 -5.7762238287256268e-02 -1.4602451392785995e-02 -5.7762238287256247e-02 -9.7504103283184360e-02 1.4570894533743120e-01 -1.4602451392785994e-02 1.4570894533743120e-01 1.2699288504847372e-01  1.1009270770186550e-02 1.1111796533237950e-02 -2.0073032153010376e-02 1.1111796533237950e-02 -2.3328742181301428e-02 1.5637944129415168e-01 -2.0073032153010376e-02 1.5637944129415168e-01 4.9078481723734191e-02  1.5976523147297278e-02 3.6619113000851697e-03 2.6066955924610607e-03 3.6619113000851697e-03 -2.5001538247491392e-02 1.4375328192195350e-01 2.6066955924610607e-03 1.4375328192195350e-01 3.6076446327593867e-02  2.1131852902481128e-02 -9.0470340556552467e-03 3.3188134632611194e-02 -9.0470340556552467e-03 -2.9298881866556766e-02 1.3863770281383406e-01 3.3188134632611194e-02 1.3863770281383406e-01 3.5874502240613323e-02  2.7042692774453151e-02 -2.1663077817607641e-02 5.2293596987024953e-02 -2.1663077817607641e-02 -2.1531442067799750e-02 1.2362642815065444e-01 5.2293596987024953e-02 1.2362642815065444e-01 2.1735314299307078e-02  2.0714332970588722e-02 -1.8631751259866224e-02 7.5399249134978918e-02 -1.8631751259866224e-02 -1.7628681399438042e-02 1.0990861268630771e-01 7.5399249134978918e-02 1.0990861268630771e-01 1.9447193028785524e-02  4.6837229520963752e-02 -1.2623071331609210e-02 6.5789154365439917e-02 -1.2623071331609210e-02 4.0717072533121381e-04 8.2212490762609128e-02 6.5789154365439931e-02 8.2212490762609128e-02 -3.6261859683459421e-02  5.1049834385225597e-02 -1.9266356813205470e-02 7.9567888109091683e-02 -1.9266356813205474e-02 5.8625083885449061e-03 4.8301932506043990e-02 7.9567888109091656e-02 4.8301932506043990e-02 -4.5581930440507339e-02  1.9909250160122793e-02 -3.7846669939764876e-02 1.0761373746898402e-01 -3.7846669939764876e-02 2.0415675139188589e-02 3.9178829693696612e-02 1.0761373746898402e-01 3.9178829693696612e-02 -1.6397897320627266e-02  2.5885529820314439e-02 -4.0292575482379286e-02 9.7822479886339311e-02 -4.0292575482379279e-02 4.2015077781340851e-02 6.5088867210095830e-03 9.7822479886339284e-02 6.5088867210095830e-03 -4.9451345803294570e-02  1.1674743552119379e-02 -4.0878853119565232e-02 1.0000333919247172e-01 -4.0878853119565253e-02 5.9604633771801710e-02 -8.9381866446603484e-03 1.0000333919247172e-01 -8.9381866446603484e-03 -5.1613679256061057e-02  -1.5260204268145046e-02 -2.3967232485722512e-02 9.2264078046757375e-02 -2.3967232485722509e-02 6.9920543613799888e-02 -3.5943648887737330e-02 9.2264078046757375e-02 -3.5943648887737330e-02 -3.5286460067502329e-02  -2.4233443817394902e-02 5.8603548187959615e-03 9.0930382398840576e-02 5.8603548187959615e-03 5.7882853624672499e-02 -5.1333568659152923e-02 9.0930382398840576e-02 -5.1333568659152923e-02 -1.0959152184234688e-02  4.7138441848216745e-03 8.7940942165993415e-03 5.8373531870100123e-02 8.7940942165993415e-03 6.6498267929376950e-02 -5.8089927159105402e-02 5.8373531870100123e-02 -5.8089927159105402e-02 -5.6989843290827694e-02  1.2148766926439066e-02 -3.3125073128258277e-02 -1.1039992997201537e-02 -3.3125073128258277e-02 8.0814281957838990e-02 -7.9966910438565630e-02 -1.1039992997201533e-02 -7.9966910438565630e-02 -8.1782102854170591e-02  -1.6744880533726261e-02 2.6836423149889658e-02 4.2889355624904230e-02 2.6836423149889658e-02 4.7706282552582871e-02 -7.4628583812208354e-02 4.2889355624904230e-02 -7.4628583812208354e-02 -1.4361999875507304e-02  8.0567851009977029e-02 -3.9326344215969977e-02 4.2430535289135589e-02 -3.9326344215969984e-02 -9.9108228580480268e-02 3.4686355912093104e-02 4.2430535289135589e-02 3.4686355912093104e-02 4.6795500154617170e-02  8.0756039209401234e-02 -4.1898766853762703e-02 5.1507924481453554e-02 -4.1898766853762683e-02 -1.0901990634314256e-01 2.9060033246090943e-03 5.1507924481453554e-02 2.9060033246090943e-03 5.5617010933092938e-02  9.9933726944982287e-02 -6.7260163569211343e-02 5.4124435018616086e-02 -6.7260163569211343e-02 -1.3343605677498402e-01 -5.9082250911289330e-03 5.4124435018616093e-02 -5.9082250911289330e-03 8.1676534619859908e-02  1.3087965939842167e-01 -6.7298839866445193e-02 5.9577491212057555e-02 -6.7298839866445193e-02 -1.5813428495915691e-01 1.5441661790258935e-02 5.9577491212057555e-02 1.5441661790258935e-02 9.7954348147609699e-02  1.1976062192466068e-01 -5.7608872868719241e-02 5.7554838669571562e-02 -5.7608872868719234e-02 -1.5359999219018167e-01 2.8239357701631017e-02 5.7554838669571576e-02 2.8239357701631017e-02 9.9337631074061974e-02  1.0889733194702728e-01 -4.4072132457300600e-02 4.4713013383671882e-02 -4.4072132457300600e-02 -1.5413815693568078e-01 2.2835140747603878e-02 4.4713013383671868e-02 2.2835140747603878e-02 1.0254468437901496e-01  8.1718939658594419e-02 -3.6513723365150123e-02 3.4589077002560684e-02 -3.6513723365150123e-02 -1.4592511225780003e-01 1.0289669396275482e-02 3.4589077002560684e-02 1.0289669396275482e-02 1.1207611571536724e-01  5.4849555750711820e-02 -3.4193266389292702e-02 6.2566401576512665e-02 -3.4193266389292702e-02 -1.2801433527689302e-01 -9.3602962523467639e-03 6.2566401576512665e-02 -9.3602962523467639e-03 1.1041193629516578e-01  4.3272650888837583e-02 -1.8437593518871608e-02 6.9210162454215879e-02 -1.8437593518871608e-02 -4.5222312617020644e-02 -5.8300362160882951e-03 6.9210162454215879e-02 -5.8300362160882959e-03 6.7039075834184397e-03  1.4554095395599859e-01 5.0941280748710495e-02 -3.5399976879771998e-02 5.0941280748710516e-02 -1.3004492325245404e-01 -6.8115641516714731e-02 -3.5399976879771998e-02 -6.8115641516714731e-02 3.5182984799447967e-02  1.2003031614929091e-01 1.2859736250697798e-01 -1.1828453511656102e-02 1.2859736250697798e-01 -9.3944037596517302e-02 -7.4203069223579277e-02 -1.1828453511656097e-02 -7.4203069223579277e-02 3.5628367834663631e-02  3.5482033833695206e-02 1.5094780653362289e-01 1.2281522077459880e-02 1.5094780653362289e-01 -3.3121280939887081e-02 -7.2293818934617698e-02 1.2281522077459889e-02 -7.2293818934617698e-02 5.4465557977824521e-02  -5.2135591733837111e-02 1.4748774570726314e-01 2.8972014414715575e-02 1.4748774570726314e-01 5.3916108216484661e-02 -6.8153591908385588e-02 2.8972014414715575e-02 -6.8153591908385602e-02 5.6460746572759624e-02  -1.0557065502845514e-01 9.0100966836520191e-02 4.5409119308511485e-02 9.0100966836520191e-02 8.3251786293403768e-02 -6.5866230619647109e-02 4.5409119308511485e-02 -6.5866230619647109e-02 7.0895172496348052e-02  -1.1601554359663636e-01 3.2735028400148032e-02 6.6173227747683680e-02 3.2735028400148032e-02 1.1213823594322131e-01 -4.8368347255190271e-02 6.6173227747683708e-02 -4.8368347255190271e-02 4.7856833063412672e-02  -9.2039651085020088e-02 -3.3812717559836634e-02 7.9500120352303499e-02 -3.3812717559836634e-02 9.2714126926239759e-02 -2.8664560754702556e-02 7.9500120352303486e-02 -2.8664560754702556e-02 3.2421488958645377e-02  -8.7817198153308851e-02 -5.0915649185212429e-02 6.4572318009003593e-02 -5.0915649185212436e-02 6.4664110795655094e-02 -2.4581175990217197e-02 6.45723180