<?xml version="1.0"?>
<VTKFile type="UnstructuredGrid"  version="0.1"  >
<UnstructuredGrid>
<Piece  NumberOfPoints="1268" NumberOfCells="4847">
<Points>
<DataArray  type="Float64"  NumberOfComponents="3"  format="ascii">1.994716987487452 0.01317707561264319 -1.202466945460223e-11  1.374072606111497 -0.08614134488653273 -5.388997575085332  -1.285941478930618 0.1916557790035214 -5.691288663606836  -1.59032616235459 -0.4515196446136259 1.626303258728257e-17  0.4950030257755884 2.521650519233041 -5.495391852657774  -0.4107718940653654 -2.429115409112172 -5.58531208084276  -0.9314707163843408 -3.006923447963563 4.87890977618477e-17  1.161824811771535 2.948440156756841 -3.391384395534658e-14  2.146749234505421 0.002696741478414759 -0.5615078450779066  2.330988047973839 -0.000873250973709995 -1.113141311680313  2.540713632977715 -0.1384292375506191 -1.637427654548237  2.645241452520652 -0.2872312815961211 -2.18637082393926  2.504842461151312 -0.2752146673621067 -2.746850782899552  2.287876352721185 -0.2088259978706829 -3.283011632728322  2.137771360922677 -0.2093380261300688 -3.844996501809416  1.970142554575494 -0.2193701374385486 -4.401638277082749  1.701580801829277 -0.1696632515169769 -4.915066532844666  1.398049690886424 0.4419377546899956 -5.387643705321969  1.183972204621215 0.9208338616597355 -5.413149504812257  0.7621482426349403 1.234356207118232 -5.461782499987256  0.2539805730796886 1.370727420898931 -5.519751404145364  -0.2689415860383004 1.319053689498898 -5.578906487138381  -0.7357170559581984 1.076180709179107 -5.631191713357971  -1.086003096318238 0.6812820615514149 -5.669884670156524  -1.65706961757681 -0.5275128747266272 -0.6240725009925172  -1.829082870387909 -0.8347372240299333 -1.153553189134448  -2.030635262011336 -1.097965926806997 -1.693320688638939  -2.148557703924963 -0.9683820133813712 -2.295450526931833  -2.119047321408695 -0.7521727279271558 -2.890676896601294  -1.972500555455803 -0.7106310836492745 -3.509380855831461  -1.885028119342598 -0.4902108162504233 -4.093718100793141  -1.832050776792238 -0.1313823297003599 -4.617858136599065  -1.636180550340053 0.1151199882480144 -5.165527944859976  -1.540434086810702 0.1014447694855235 -7.644826989049428e-17  -1.339902801239663 0.6191128040412099 2.218327606354497e-17  -0.9949589579071262 1.053322092476122 2.12059320661159e-17  -0.5243975458638882 1.346285776146202 7.754217898549941e-16  0.01399251627036286 1.481823287560149 3.252316763596149e-17  0.5696211504784076 1.47677978548424 -7.207855520904863e-17  1.105448032340458 1.331487337928338 1.951563910473908e-16  1.561367740818086 1.018090979386763 -2.179459114756194e-16  1.860006992193919 0.551530302300456 1.369433074745588e-16  -0.152869286718376 2.506583809965366 -5.568804938302105  -0.7781210310064858 2.335338381675429 -5.639249366957451  -1.340550096787874 2.011723800088065 -5.702178028336585  -1.803922993566052 1.555830170950866 -5.753534898075912  -2.144678763029901 1.000979069722826 -5.790734833138769  -2.346903237737564 0.3811866585909049 -5.812061421922149  -2.406990243842066 -0.2684488461825228 -5.817196438260218  -2.318433628103212 -0.9144163570965761 -5.805488779558074  -2.059391262210163 -1.511004864267824 -5.774580158166454  -1.615755841275718 -1.983465489741105 -5.72306417450185  -1.043145925381342 -2.287058241276404 -5.657361969815248  -0.6986882361605687 -2.420627649803484 -5.024556445072709  -0.8272574030199392 -2.685291244074475 -4.476216325063944  -0.8113210073272845 -3.118860027310894 -4.01596683617901  -0.7618552434953355 -3.481598098596065 -3.504026669625047  -0.7509882165597778 -3.609083979854663 -2.886473298216772  -0.7986167670519319 -3.732483084086931 -2.268445488219849  -0.8276969497603353 -3.810997815301134 -1.64593496945388  -0.7425506523451623 -3.557242155569485 -1.078322423839125  -0.7147449622328144 -3.21189056194362 -0.5511080601316157  -1.482234509376526 -2.778582553401298 -5.854479658363816e-16  -1.970737176894139 -2.437284655419533 2.764697292186607e-16  -2.362818572203899 -1.988727212877528 2.439101268600111e-16  -2.642390785384022 -1.462244173776716 5.051059276813266e-16  -2.812149102113852 -0.89052423419162 2.276851973687203e-16  -2.877946727920729 -0.2976446157883296 -1.219909928720168e-16  -2.842947107925845 0.2978601752284433 4.065446096494693e-17  -2.70313036896374 0.8776122116387211 -5.041496169361013e-16  -2.452324348076021 1.418519584933707 4.379274460317988e-16  -2.098265626135573 1.898294456130726 1.951060033519619e-16  -1.658391347368763 2.301023318502569 -1.789574489620802e-16  -1.154148079923361 2.619757341302747 -2.081203863085907e-15  -0.6042202207747882 2.851073703499478 -3.577841418755692e-16  -0.02416138323675775 2.990516581461941 4.065982498622179e-16  0.5710641261211448 3.028216945076794 -1.46882551317968e-16  0.6414151130412097 2.696325287154043 -4.983333021490838  0.771852374565919 2.778456367279237 -4.445188759107248  0.8805845204306011 2.73078881179073 -3.897720120696569  0.9481597620953167 2.69798349057175 -3.343104559074628  0.9815370707090804 2.778214865778854 -2.789250505759619  1.013475345489448 2.861817704396183 -2.235671116027784  1.055849759321274 2.898356228459238 -1.677594140621302  1.093646323460014 2.92793989028903 -1.118725590781912  1.124098871622056 2.957526991478201 -0.5594169689370629  0.2477015793419729 -2.415655802610486 -5.510682951113449  0.8844491790088972 -2.245867158009595 -5.438931443942415  1.464891069119211 -1.932330028996181 -5.373934600293736  1.955087092649627 -1.489613175355717 -5.319502697776375  2.318355026965356 -0.937054784961175 -5.279744576064058  2.524994411863564 -0.307899182343253 -5.257941630215678  2.574632820450045 0.3531084349228537 -5.254020561031156  2.465743861849647 1.006614152640354 -5.268052816559671  2.183897076015212 1.604484044160622 -5.301550147358176  1.722560240631265 2.07491696755195 -5.35506775502591  1.13806318635062 2.378906583716481 -5.422118662603529  1.742182153284979 2.73179858498085 5.854691697147836e-16  2.262480931380501 2.395264875892136 -2.601681534737615e-16  2.698000706832733 1.954727370266727 -3.903113804560263e-16  3.021530388777258 1.426473918441798 1.707421408502106e-16  3.223363606607101 0.8405687193648443 -2.844806418042028e-16  3.305434793487241 0.2261994274297442 -4.472186606099012e-16  3.269241566985055 -0.3926051469820059 3.171555149681837e-16  3.113478077610213 -0.9924495549400153 3.510830505762065e-16  2.840400132149515 -1.548806515270482 -1.707368614952523e-16  2.466120284856568 -2.042983582774378 9.732831365154574e-17  2.008125599488538 -2.460814027017948 -3.577575055983979e-16  1.482521285196868 -2.789563899556613 -4.886146623064541e-17  0.9057866143556688 -3.01678997208197 -2.439392613813594e-16  0.2964958724913082 -3.130681163554852 3.414395345104792e-16  -0.32338307292875 -3.126978161260848 2.926910878106614e-16  -1.29067345658392 -0.3506098753383553 -5.690421630247788  -1.068897680254163 -0.8451623229646739 -5.663999894259847  -0.6782440885714781 -1.219621806060448 -5.6187489875115  -0.168757542531344 -1.390394566692369 -5.560546895724229  0.3611301401510615 -1.294122251639114 -5.500717901478111  0.8191548613516448 -1.005201308695582 -5.449538098373106  1.16817203978903 -0.5892762115769014 -5.411042670828763  1.960898302630318 -0.551652302616722 -8.131516293641286e-17  1.751009740180289 -1.077278642631261 7.445724005953314e-16  1.394016468000002 -1.516729095803803 1.136104663605282e-15  0.9227767039454898 -1.830301465573364 3.434443593283319e-16  0.3780412068884804 -1.984007749105097 8.617772484356591e-16  -0.1885780664025548 -1.977994130030172 2.357202029695971e-16  -0.7327557451871473 -1.821291124380143 1.942410916395698e-17  -1.191068596016128 -1.491774666596192 2.975009434367945e-16  -1.480405544894888 -1.006855825633415 6.954512630084263e-16  -1.812414118534285 0.2561131097252937 -2.664867827914479  2.421751940242729 0.6298287624476981 -1.933377861698098  0.7556418177061754 1.42269463362527 -4.617654324361507  0.003134751711410342 1.574821943356493 -0.9318675177876981  1.015098001669947 1.51699057942374 -0.9441494884276413  0.6193243625380082 1.764115149411371 -1.862230514405671  -0.4757031201037318 1.549728101933577 -1.958273018773558  0.1126459993007786 1.698838152590054 -2.957602797129454  -0.3405660022430232 1.569615851499001 -4.678135257405353  1.818199099779932 0.7365610114574719 -3.763003518505052  -0.9541815370276669 1.23451227632913 -2.875526912859068  -1.269464226480212 1.016489154450913 -4.672047638709048  1.301562892980348 1.557566760682666 -2.802482532053872  -0.7813756340336595 1.414221906310649 -3.725761628685261  -1.58370798409762 0.5643609111372817 -3.581008460136619  -0.988817348255397 1.158392548936659 -1.014254585170146  -1.607700527190565 0.2800106654898483 -1.030081240453645  -1.388203055800784 0.7951310659851955 -1.943712885648593  0.8261955720421881 1.570157055202129 -3.620947225245673  1.681455131778566 1.410849015379531 -1.876189895849114  1.878739160554727 0.943024132521903 -0.9866418074548234  2.103426639579445 1.000735947836943 -2.593434794762663  1.62623803052506 0.6468498306152269 -4.727220189271843  -1.882943490361709 -0.1546739965127431 -1.761716647663214  0.05868355051519467 1.656538949473053 -3.863342338366238  2.465845305360337 0.2632819454094029 -2.663569745038379  1.994842599423799 0.5019775153043848 -0.4779055074204815  2.1671824130763 0.4980244878585698 -1.027636182799239  1.710213566460811 0.9718796190568162 -0.4957578884333736  1.845584590132108 0.2253887364997403 -4.583879812097906  1.579035044615276 0.2924902970866011 -5.101748935835201  1.409777182251665 0.7868327264427526 -5.07202467441607  -1.039178737375989 1.089168173550246 -5.170746090958521  -1.377687418630729 0.6683636420802941 -5.233117919580046  -1.641402128985454 0.4875654733502939 -4.648722230221863  -1.765467255797776 -0.2695484060062747 -1.079683539430899  -1.617858736076732 -0.08318463488274264 -0.5123563299218489  -1.474019211051276 0.4496529111656123 -0.5150171376928306  2.417677350191343 0.3274903893149403 -1.506992657970159 
[...]
<PointData  Tensors="strain"> 
<DataArray  type="Float64"  Name="strain"  NumberOfComponents="9" format="ascii">-4.4857197210875555e-02 -9.8290246280591780e-03 -2.9590062048309879e-01 -9.8290246280591780e-03 1.1547659443128848e-02 -4.2525420690060413e-02 -2.9590062048309879e-01 -4.2525420690060413e-02 2.2965613437479127e-01  -1.8884222490047448e-01 5.1412537073731453e-02 1.5121560197523568e-01 5.1412537073731453e-02 3.8930307604770509e-01 -8.5087976027620665e-02 1.5121560197523565e-01 -8.5087976027620665e-02 2.5511320567109690e-02  -1.4561482951793592e-01 7.9569780710964891e-02 -1.8176130377373884e-01 7.9569780710964877e-02 3.6606129814184296e-01 9.5782053759343136e-02 -1.8176130377373884e-01 9.5782053759343136e-02 1.1025787387766885e-02  -6.6036986259178310e-02 -3.7807021998715384e-02 2.7631345919113204e-01 -3.7807021998715377e-02 3.3392434853265389e-03 -2.7803159123856763e-02 2.7631345919113204e-01 -2.7803159123856766e-02 2.5743671769309429e-01  9.7340448462522849e-02 -1.0814262141963365e-02 5.9504476618842284e-02 -1.0814262141963365e-02 -9.5223581102466481e-02 5.9751587186237270e-02 5.9504476618842284e-02 5.9751587186237270e-02 3.1456071535366670e-02  1.7385173484606650e-01 -7.3743896985956217e-03 -5.3719798866961134e-02 -7.3743896985956296e-03 -1.5389450730593995e-01 -4.0087956822947142e-02 -5.3719798866961134e-02 -4.0087956822947142e-02 3.6689705624185109e-02  -8.4198568896969267e-04 1.1324429117277829e-02 -4.8356767659293094e-02 1.1324429117277829e-02 -1.7991885910582872e-02 1.8716970425312804e-01 -4.8356767659293094e-02 1.8716970425312804e-01 8.2462799740167764e-02  6.5443181836490503e-03 2.9274389189981469e-02 5.9924306007845686e-02 2.9274389189981469e-02 4.7588232502059964e-02 -8.7898643989202302e-02 5.9924306007845686e-02 -8.7898643989202302e-02 -3.4213790409083095e-02  -1.9023578573137856e-01 -4.4641141082276396e-02 -1.6672053506319956e-01 -4.4641141082276396e-02 1.9558284242600907e-01 -8.5308136830954173e-02 -1.6672053506319956e-01 -8.5308136830954173e-02 1.7756480224708879e-01  -2.2268302028485989e-01 -6.0869924602504677e-02 -1.3264976252891539e-01 -6.0869924602504663e-02 2.7712228745942369e-01 -6.6524131539828751e-02 -1.3264976252891539e-01 -6.6524131539828751e-02 1.4970564286984328e-01  -2.5590183813532985e-01 -1.0553597628488618e-02 -1.1437892322037313e-01 -1.0553597628488618e-02 3.0245532713812168e-01 -3.6098810007462852e-02 -1.1437892322037313e-01 -3.6098810007462852e-02 1.7198910968916944e-01  -2.8059207286352472e-01 2.8202110283696648e-02 1.8699481993919827e-03 2.8202110283696648e-02 2.8989743903078391e-01 -5.7285611917745061e-02 1.8699481993919827e-03 -5.7285611917745061e-02 2.1715484327783158e-01  -2.3957919328546409e-01 -4.3280631222886558e-03 1.3269592740239719e-01 -4.3280631222886497e-03 3.4809527475401858e-01 -7.4456418275602870e-02 1.3269592740239719e-01 -7.4456418275602870e-02 1.2432059223354384e-01  -2.3069324223492813e-01 -4.7127100351076111e-02 1.1754633877736563e-01 -4.7127100351076097e-02 4.0060050429532729e-01 -2.6573340417730580e-02 1.1754633877736563e-01 -2.6573340417730580e-02 5.9409143424928583e-02  -2.4477654159892012e-01 -1.5600071616788985e-02 1.0290014059788241e-01 -1.5600071616788986e-02 4.1181561257950700e-01 -1.6477455544159005e-02 1.0290014059788241e-01 -1.6477455544159008e-02 6.5144542837163907e-02  -2.2316378663542494e-01 8.9785216224704048e-03 1.3509370464996820e-01 8.9785216224704117e-03 3.8721150980226543e-01 -4.3945356151841655e-02 1.3509370464996820e-01 -4.3945356151841634e-02 6.1421522481639262e-02  -1.7611544001977220e-01 3.7509747976167115e-02 1.7486988242740095e-01 3.7509747976167108e-02 3.8033005195145098e-01 -5.9035930950718643e-02 1.7486988242740095e-01 -5.9035930950718643e-02 2.7262938648984915e-02  -1.5520810580156247e-01 -1.3859729818744282e-01 1.8605502233273716e-01 -1.3859729818744279e-01 3.1472503183936679e-01 -1.5199840338265328e-02 1.8605502233273716e-01 -1.5199840338265328e-02 6.3207671178279246e-02  1.7250635026664064e-02 -2.8179941924079871e-01 1.4794240459009739e-01 -2.8179941924079871e-01 1.2301068411705068e-01 5.9795681388106613e-02 1.4794240459009739e-01 5.9795681388106613e-02 8.3913161406695316e-02  2.2329855925710110e-01 -2.2338435379520630e-01 1.1253948892382704e-01 -2.2338435379520630e-01 -1.1116620226148546e-01 1.1962125715219679e-01 1.1253948892382706e-01 1.1962125715219679e-01 1.0950837933756608e-01  3.1093101458416539e-01 -5.3197573055116312e-02 6.9193063643685604e-02 -5.3197573055116312e-02 -2.0019480043705282e-01 1.7275942275128719e-01 6.9193063643685576e-02 1.7275942275128722e-01 1.1363466217321742e-01  2.8004268393317694e-01 1.2380638359346867e-01 -8.8123200089247119e-03 1.2380638359346868e-01 -1.4982851568228275e-01 2.0705014499914426e-01 -8.8123200089247102e-03 2.0705014499914423e-01 9.8637911462833003e-02  1.3633812692939934e-01 2.3844358712016731e-01 -7.6671891214710880e-02 2.3844358712016725e-01 1.4435724474563167e-02 1.9491622693957689e-01 -7.6671891214710880e-02 1.9491622693957689e-01 7.3206369855911668e-02  -3.2806203300903419e-02 2.1912849710117743e-01 -1.3656323187525565e-01 2.1912849710117743e-01 2.1190719127368512e-01 1.6130284730272662e-01 -1.3656323187525568e-01 1.6130284730272662e-01 4.7032439201589248e-02  -2.0538717890409150e-01 -1.9349698331843964e-02 1.5535453354765472e-01 -1.9349698331843964e-02 1.7093195605263015e-01 1.5169870387843126e-02 1.5535453354765472e-01 1.5169870387843128e-02 2.0001362888735238e-01  -2.1171347343748878e-01 -4.1421936356440828e-02 1.3774592098081309e-01 -4.1421936356440828e-02 2.6567906229567206e-01 1.0376683286754264e-02 1.3774592098081309e-01 1.0376683286754259e-02 1.2809219169694355e-01  -2.4103808091801679e-01 -4.0492463108322406e-02 1.2086542473450479e-01 -4.0492463108322406e-02 2.7757418016655894e-01 3.1559090569660726e-02 1.2086542473450479e-01 3.1559090569660726e-02 1.6943285414395198e-01  -2.8088189042240330e-01 -1.6007865597308369e-02 2.4788717264821448e-02 -1.6007865597308369e-02 3.0899990963893542e-01 5.7346920819167951e-02 2.4788717264821455e-02 5.7346920819167965e-02 1.9406570162337997e-01  -2.7621856104193876e-01 5.7344325128324365e-03 -4.9732409325279982e-02 5.7344325128324365e-03 3.4210580095943538e-01 9.4492423563287589e-02 -4.9732409325279982e-02 9.4492423563287589e-02 1.6353547898967968e-01  -2.5680508300306276e-01 -2.1697110721096934e-02 -6.8759047899399781e-02 -2.1697110721096934e-02 3.8019739617640319e-01 1.1146008685949009e-01 -6.8759047899399781e-02 1.1146008685949009e-01 1.0311942202700722e-01  -2.6607225174315868e-01 -1.2747069126037401e-02 -5.0195803717138818e-02 -1.2747069126037401e-02 3.7795037859201930e-01 1.2528478390778161e-01 -5.0195803717138818e-02 1.2528478390778161e-01 1.1667611099770375e-01  -2.6827217541006759e-01 4.7772787155455909e-02 -6.7039641724261134e-02 4.7772787155455902e-02 3.5553687879813473e-01 1.0970650362702809e-01 -6.7039641724261134e-02 1.0970650362702809e-01 1.4705853446518402e-01  -2.1285187942479894e-01 6.6733164508878423e-02 -1.4565939156013763e-01 6.6733164508878437e-02 3.4662634187238112e-01 1.1309324239334087e-01 -1.4565939156013757e-01 1.1309324239334086e-01 1.0335060933225566e-01  -9.1589124382234974e-02 -1.9504462468951486e-03 2.6718194627767317e-01 -1.9504462468951532e-03 1.4397154906763155e-02 -6.5410425991726445e-02 2.6718194627767317e-01 -6.5410425991726445e-02 2.7443196300674816e-01  -8.1219432135805000e-02 3.1878858815994393e-02 2.2739945888394389e-01 3.1878858815994393e-02 -1.0893345471104821e-03 -1.4243046128042516e-01 2.2739945888394389e-01 -1.4243046128042516e-01 2.7844263384987167e-01  -5.9375190993910788e-02 5.8673192322308068e-02 1.9068968549802559e-01 5.8673192322308054e-02 -3.0545539275453271e-02 -1.8924552379819115e-01 1.9068968549802559e-01 -1.8924552379819115e-01 2.8970680882248578e-01  -1.8561926160151433e-02 4.7177378568897012e-02 1.1480012668442358e-01 4.7177378568897026e-02 -6.9925414401659503e-02 -2.3473916497088645e-01 1.1480012668442358e-01 -2.3473916497088645e-01 2.9421354745039457e-01  4.1071087983352006e-04 3.1910482376640001e-02 7.0880382979287532e-02 3.1910482376640001e-02 -9.2702069185675709e-02 -2.5896175073661548e-01 7.0880382979287532e-02 -2.5896175073661548e-01 3.0359103386955433e-01  4.5578000621102691e-03 4.4100974942642597e-03 -2.4662165147427882e-02 4.4100974942642597e-03 -9.9434229840297955e-02 -2.7014648000900998e-01 -2.4662165147427875e-02 -2.7014648000900998e-01 3.1468074474326679e-01  1.1739948103541379e-02 -1.8324665391397339e-02 -8.9059855201533353e-02 -1.8324665391397339e-02 -8.1223222669344619e-02 -2.6710190541666212e-01 -8.9059855201533339e-02 -2.6710190541666218e-01 2.7098614614558242e-01  -1.9728924775352374e-02 -5.2731995854271643e-02 -2.0476691340742142e-01 -5.2731995854271643e-02 -5.3690861859582446e-02 -1.9467473563190538e-01 -2.0476691340742142e-01 -1.9467473563190538e-01 2.9712457513176910e-01  -7.2919448516934049e-02 -4.3660188470800498e-02 -2.6455295007576135e-01 -4.3660188470800512e-02 -2.4468062580106312e-02 -1.1394151272571086e-01 -2.6455295007576135e-01 -1.1394151272571086e-01 3.2716183877437155e-01  8.5330596034456446e-02 3.6483622870428951e-02 3.1107193456569589e-02 3.6483622870428958e-02 -8.8127655878869088e-02 7.9187051369476263e-02 3.1107193456569589e-02 7.9187051369476291e-02 3.6768310159865231e-02  7.1575758891092273e-02 7.7501283024027354e-02 1.4423737866204862e-02 7.7501283024027354e-02 -6.4917374359771657e-02 8.4914219190078716e-02 1.4423737866204862e-02 8.4914219190078716e-02 3.0327226034155750e-02  1.5649126935318169e-02 9.0199168803499680e-02 -1.5665539875846863e-02 9.0199168803499680e-02 -2.1187158379656734e-02 8.8722149803166381e-02 -1.5665539875846863e-02 8.8722149803166381e-02 3.9278141413521796e-02  -2.2612699915739616e-02 9.8421633772308101e-02 -4.8749586336422041e-02 9.8421633772308115e-02 5.2522592673161797e-02 7.9770017513208766e-02 -4.8749586336422041e-02 7.9770017513208766e-02 1.0050243409069246e-02  -6.3473350960707442e-02 6.3572116227343656e-02 -6.8052523135706783e-02 6.3572116227343656e-02 9.8147485924624939e-02 7.1681433320200244e-02 -6.8052523135706783e-02 7.1681433320200244e-02 5.7682476711979069e-03  -8.9913545838877548e-02 2.1779530792471101e-02 -8.0565895146507902e-02 2.1779530792471101e-02 1.0883399891293900e-01 4.9582136118407588e-02 -8.0565895146507902e-02 4.9582136118407588e-02 2.1267562820815725e-02  -8.1265717191715395e-02 -2.3815101490336377e-02 -1.0039988976132462e-01 -2.3815101490336377e-02 1.1062334419526273e-01 3.1411061393580214e-02 -1.0039988976132465e-01 3.1411061393580214e-02 1.6505301687147356e-02  -4.5902526954464860e-02 -8.0820241113408561e-02 -8.6443085451828022e-02 -8.0820241113408547e-02 8.1568497245723223e-02 7.9031931243517446e-04 -8.6443085451828008e-02 7.9031931243517392e-04 2.9057601052254807e-04  1.0519796887185462e-02 -1.0793056594663836e-01 -9.0897067691556324e-02 -1.0793056594663836e-01 6.5290179607018772e-03 4.6295826970224781e-03 -9.0897067691556324e-02 4.6295826970224781e-03 1.8862836260965087e-02  5.3473620048206764e-02 -4.8526642582201698e-02 -8.1992351494943577e-02 -4.8526642582201684e-02 -7.8224714334940451e-02 -3.0813179779119348e-02 -8.1992351494943591e-02 -3.0813179779119348e-02 4.7007589677658612e-02  1.3044475508746836e-01 -6.9462626058539784e-02 -6.2152906853508473e-02 -6.9462626058539784e-02 -1.1444857894528344e-01 -4.5771916482487469e-02 -6.2152906853508473e-02 -4.5771916482487469e-02 3.0081801998898771e-02  2.1052674644112349e-01 -4.4040702686160164e-02 -7.4993414739609202e-02 -4.4040702686160157e-02 -1.7532744406354889e-01 -1.0366276371750029e-01 -7.4993414739609202e-02 -1.0366276371750029e-01 8.2079643577598879e-02  2.0613561867518107e-01 -3.3242321249273933e-02 -6.6948664821876766e-02 -3.3242321249273912e-02 -1.0665776581803973e-01 -1.6036848855497035e-01 -6.6948664821876766e-02 -1.6036848855497038e-01 2.4321009341348808e-02  1.7551264189123841e-01 -8.8810414818276985e-03 -3.6640529703140134e-02 -8.8810414818277002e-03 -8.1315267382720949e-02 -1.3776914060624529e-01 -3.6640529703140134e-02 -1.3776914060624529e-01 -1.5833931202958743e-02  1.5016972185816146e-01 -2.1529780042862921e-03 -2.9229180986467530e-02 -2.1529780042862921e-03 -1.1999006882187889e-01 -9.3707255127182504e-02 -2.9229180986467530e-02 -9.3707255127182504e-02 2.5069050988903937e-02  1.2619993826489156e-01 -3.2838963190463644e-02 -4.9329451786180582e-02 -3.2838963190463644e-02 -1.5682966360159381e-01 -5.9455259646444963e-02 -4.9329451786180582e-02 -5.9455259646444963e-02 9.6491061301083689e-02  9.7544328586781873e-02 -3.5080765342767488e-02 -3.9555085707437994e-02 -3.5080765342767488e-02 -1.5378939676037814e-01 -2.7975970855366347e-02 -3.9555085707437994e-02 -2.7975970855366343e-02 1.0919243813006352e-01  6.6374768869352424e-02 -5.1585487843109401e-02 -6.9453571160898444e-03 -5.1585487843109401e-02 -1.1052111989333675e-01 4.1635193860525548e-02 -6.9453571160898444e-03 4.1635193860525534e-02 7.2407656462066552e-02  5.1968926195005490e-02 -7.5742395012859301e-02 -2.6808217146012203e-04 -7.5742395012859301e-02 -8.9092814970087753e-02 1.2023132124654429e-01 -2.6808217146012182e-04 1.2023132124654429e-01 9.5946052699911313e-02  4.7991457329720731e-02 -6.3575492454975291e-02 -1.0675005603226130e-02 -6.3575492454975291e-02 -1.0319574461412390e-01 1.5848419375183637e-01 -1.0675005603226130e-02 1.5848419375183637e-01 1.4314302178656488e-01  7.3462325065779301e-03 8.9211687293146297e-03 -1.3522966397000173e-02 8.9211687293146297e-03 -2.2911908988467150e-02 1.7703205105876035e-01 -1.3522966397000173e-02 1.7703205105876035e-01 6.3779333337553090e-02  1.1903302011777962e-02 3.0442810850636543e-03 1.1728983792263054e-02 3.0442810850636543e-03 -2.4943819437891191e-02 1.6243455777013938e-01 1.1728983792263054e-02 1.6243455777013938e-01 4.9740931837339165e-02  1.6773069587506392e-02 -8.5327221812442847e-03 4.4501979348228339e-02 -8.5327221812442847e-03 -2.9217863535010505e-02 1.5561136424718808e-01 4.4501979348228318e-02 1.5561136424718808e-01 4.9688324795843536e-02  2.2565698538795871e-02 -2.1364904179681607e-02 6.5329216759139608e-02 -2.1364904179681607e-02 -1.9828859545716473e-02 1.3927676639709879e-01 6.5329216759139580e-02 1.3927676639709871e-01 3.3707030863854945e-02  1.7307392790210360e-02 -1.7338819617802155e-02 9.0515323471895170e-02 -1.7338819617802155e-02 -1.7244680038735069e-02 1.2122477502863399e-01 9.0515323471895170e-02 1.2122477502863399e-01 3.0276843528724565e-02  4.5876873620952725e-02 -1.1783674334798820e-02 8.2471473563891270e-02 -1.1783674334798820e-02 4.1459754121680813e-04 9.1044166689397854e-02 8.2471473563891257e-02 9.1044166689397826e-02 -3.0237608789592134e-02  5.0588794308414682e-02 -1.9550329755792125e-02 9.6856473730871417e-02 -1.9550329755792129e-02 6.4169883080951503e-03 5.3225944657363293e-02 9.6856473730871417e-02 5.3225944657363293e-02 -4.1035728643457892e-02  2.1176392767203026e-02 -3.7787922077297496e-02 1.2711607671828293e-01 -3.7787922077297496e-02 2.0273417458084551e-02 3.9285088248387945e-02 1.2711607671828293e-01 3.9285088248387945e-02 -1.0419359781745813e-02  2.8713545823445551e-02 -4.0832037167137458e-02 1.1544075445458443e-01 -4.0832037167137458e-02 4.2188344776982765e-02 2.9709623534939396e-03 1.1544075445458443e-01 2.9709623534939396e-03 -4.7277356318849648e-02  1.4425876994993017e-02 -4.2621649759873641e-02 1.1586381478688174e-01 -4.2621649759873641e-02 6.0861780214911183e-02 -1.5493915403703476e-02 1.1586381478688174e-01 -1.5493915403703476e-02 -5.1009916179845738e-02  -1.4561267365790640e-02 -2.5814184436502484e-02 1.0663470176953389e-01 -2.5814184436502484e-02 7.2255578460545436e-02 -4.7027635053734196e-02 1.0663470176953389e-01 -4.7027635053734196e-02 -3.2873706631737575e-02  -2.4602053581312407e-02 5.1850242538122471e-03 1.0354117709962783e-01 5.1850242538122471e-03 5.9366553300520611e-02 -6.5290618036299361e-02 1.0354117709962783e-01 -6.5290618036299361e-02 -4.9129841393840421e-03  6.5703174774796808e-03 8.4408053658796417e-03 6.7538240507249200e-02 8.4408053658796417e-03 6.8912032877731080e-02 -7.2766867919476994e-02 6.7538240507249200e-02 -7.2766867919476994e-02 -5.6161271367197015e-02  1.2415523100300408e-02 -3.4166297786171460e-02 -8.1009552320376321e-03 -3.4166297786171460e-02 8.7468719228020589e-02 -9.3971369816378825e-02 -8.1009552320376287e-03 -9.3971369816378825e-02 -8.5334460614430480e-02  -1.8042191583766198e-02 2.6880003252136627e-02 4.7388879286206838e-02 2.6880003252136627e-02 5.0220184427062983e-02 -9.0720028721613943e-02 4.7388879286206838e-02 -9.0720028721613930e-02 -1.0222843669287900e-02  9.1178917559730496e-02 -4.4700947265114588e-02 4.1087654320220955e-02 -4.4700947265114581e-02 -1.1002174477959367e-01 4.1079125813659162e-02 4.1087654320220934e-02 4.1079125813659162e-02 5.4249030117161708e-02  8.8834166834325337e-02 -4.6095744493904883e-02 5.3663361405170994e-02 -4.6095744493904897e-02 -1.1994835444428467e-01 5.5489751692400901e-03 5.3663361405170994e-02 5.5489751692400849e-03 6.4856449646422162e-02  1.1080696153997828e-01 -7.1710285542197508e-02 5.6247740531908300e-02 -7.1710285542197508e-02 -1.4494241287531245e-01 -3.6442617305575665e-03 5.6247740531908313e-02 -3.6442617305575665e-03 9.1711609705179595e-02  1.4213944424760311e-01 -7.3352490111489463e-02 6.1308572645114523e-02 -7.3352490111489463e-02 -1.6857040369367135e-01 1.7880995257864591e-02 6.1308572645114523e-02 1.7880995257864591e-02 1.0917830030719265e-01  1.3025746928052429e-01 -6.1843889964880397e-02 5.9562150813699567e-02 -6.1843889964880376e-02 -1.6443707222412288e-01 3.1755133882623833e-02 5.9562150813699567e-02 3.1755133882623833e-02 1.1101375211148647e-01  1.1798351642361585e-01 -4.8510045570448745e-02 4.6797092703053565e-02 -4.8510045570448766e-02 -1.6589670877012136e-01 2.4499526586362376e-02 4.6797092703053565e-02 2.4499526586362376e-02 1.1639805722443447e-01  9.0956014224223752e-02 -3.9918032228588210e-02 3.7765886310227155e-02 -3.9918032228588210e-02 -1.5985686800131110e-01 1.1561136261652406e-02 3.7765886310227155e-02 1.1561136261652406e-02 1.2843983520048249e-01  6.1938624403492938e-02 -3.7514875374703216e-02 6.6897795938422128e-02 -3.7514875374703216e-02 -1.4276196147805212e-01 -9.0527620710037799e-03 6.6897795938422128e-02 -9.0527620710037799e-03 1.2838555649429706e-01  4.7031526868344969e-02 -2.4240982596148850e-02 7.2618974060251210e-02 -2.4240982596148850e-02 -5.8024570611093305e-02 -7.4138452781190830e-03 7.2618974060251210e-02 -7.4138452781190830e-03 1.7376465932204457e-02  1.5760347672756286e-01 5.3649986350398721e-02 -3.5130858336050126e-02 5.3649986350398700e-02 -1.4034484158273924e-01 -7.5862784276672965e-02 -3.5130858336050126e-02 -7.5862784276672965e-02 4.2962566232557189e-02  1.2913315717594676e-01 1.3641826075733132e-01 -1.3137574080090189e-02 1.3641826075733132e-01 -1.0159950181615028e-01 -8.2397294635283821e-02 -1.3137574080090192e-02 -8.2397294635283821e-02 4.4676704111633270e-02  4.0894639374543518e-02 1.6188605239601206e-01 1.4932412359566632e-02 1.6188605239601209e-01 -3.8751044828988203e-02 -7.8732560941553856e-02 1.4932412359566619e-02 -7.8732560941553856e-02 6.5679845242031826e-02  -5.3292371774654596e-02 1.5891414154468250e-01 3.2865918436635340e-02 1.5891414154468250e-01 5.8297550570150999e-02 -7.5384680647347407e-02 3.2865918436635340e-02 -7.5384680647347407e-02 6.3994916302407209e-02  -1.1258287978773222e-01 9.8747190228681239e-02 5.2268826861497669e-02 9.8747190228681239e-02 9.2975119441112961e-02 -7.1352032691292935e-02 5.2268826861497669e-02 -7.1352032691292935e-02 7.8669679963103201e-02  -1.2646269914956759e-01 3.6648716581563233e-02 7.4731868623329978e-02 3.6648716581563233e-02 1.2500321688318788e-01 -5.2162793930764936e-02 7.4731868623329978e-02 -5.2162793930764936e-02 5.6408277901626759e-02  -1.0104353033965328e-01 -3.8191902757833449e-02 8.9922753964180840e-02 -3.8191902757833449e-02 1.0274315201948712e-01 -3.0300554871994550e-02 8.9922753964180840e-02 -3.0300554871994546e-02 4.0251796164901599e-02  -9.5224733682763518e-02 -5.8209927848726029e-02 7.6697548852800293e-02 -5.8209927848726035e-02 7.2749698530401016e-02 -2.4184679382920259e-02 7.669754