<?xml version="1.0"?>
<VTKFile type="UnstructuredGrid"  version="0.1"  >
<UnstructuredGrid>
<Piece  NumberOfPoints="1268" NumberOfCells="4847">
<Points>
<DataArray  type="Float64"  NumberOfComponents="3"  format="ascii">1.994716987487452 0.01317707561264319 -1.202466945460223e-11  1.374072606111497 -0.08614134488653273 -5.388997575085332  -1.285941478930618 0.1916557790035214 -5.691288663606836  -1.59032616235459 -0.4515196446136259 1.626303258728257e-17  0.4950030257755884 2.521650519233041 -5.495391852657774  -0.4107718940653654 -2.429115409112172 -5.58531208084276  -0.9314707163843408 -3.006923447963563 4.87890977618477e-17  1.161824811771535 2.948440156756841 -3.391384395534658e-14  2.146749234505421 0.002696741478414759 -0.5615078450779066  2.330988047973839 -0.000873250973709995 -1.113141311680313  2.540713632977715 -0.1384292375506191 -1.637427654548237  2.645241452520652 -0.2872312815961211 -2.18637082393926  2.504842461151312 -0.2752146673621067 -2.746850782899552  2.287876352721185 -0.2088259978706829 -3.283011632728322  2.137771360922677 -0.2093380261300688 -3.844996501809416  1.970142554575494 -0.2193701374385486 -4.401638277082749  1.701580801829277 -0.1696632515169769 -4.915066532844666  1.398049690886424 0.4419377546899956 -5.387643705321969  1.183972204621215 0.9208338616597355 -5.413149504812257  0.7621482426349403 1.234356207118232 -5.461782499987256  0.2539805730796886 1.370727420898931 -5.519751404145364  -0.2689415860383004 1.319053689498898 -5.578906487138381  -0.7357170559581984 1.076180709179107 -5.631191713357971  -1.086003096318238 0.6812820615514149 -5.669884670156524  -1.65706961757681 -0.5275128747266272 -0.6240725009925172  -1.829082870387909 -0.8347372240299333 -1.153553189134448  -2.030635262011336 -1.097965926806997 -1.693320688638939  -2.148557703924963 -0.9683820133813712 -2.295450526931833  -2.119047321408695 -0.7521727279271558 -2.890676896601294  -1.972500555455803 -0.7106310836492745 -3.509380855831461  -1.885028119342598 -0.4902108162504233 -4.093718100793141  -1.832050776792238 -0.1313823297003599 -4.617858136599065  -1.636180550340053 0.1151199882480144 -5.165527944859976  -1.540434086810702 0.1014447694855235 -7.644826989049428e-17  -1.339902801239663 0.6191128040412099 2.218327606354497e-17  -0.9949589579071262 1.053322092476122 2.12059320661159e-17  -0.5243975458638882 1.346285776146202 7.754217898549941e-16  0.01399251627036286 1.481823287560149 3.252316763596149e-17  0.5696211504784076 1.47677978548424 -7.207855520904863e-17  1.105448032340458 1.331487337928338 1.951563910473908e-16  1.561367740818086 1.018090979386763 -2.179459114756194e-16  1.860006992193919 0.551530302300456 1.369433074745588e-16  -0.152869286718376 2.506583809965366 -5.568804938302105  -0.7781210310064858 2.335338381675429 -5.639249366957451  -1.340550096787874 2.011723800088065 -5.702178028336585  -1.803922993566052 1.555830170950866 -5.753534898075912  -2.144678763029901 1.000979069722826 -5.790734833138769  -2.346903237737564 0.3811866585909049 -5.812061421922149  -2.406990243842066 -0.2684488461825228 -5.817196438260218  -2.318433628103212 -0.9144163570965761 -5.805488779558074  -2.059391262210163 -1.511004864267824 -5.774580158166454  -1.615755841275718 -1.983465489741105 -5.72306417450185  -1.043145925381342 -2.287058241276404 -5.657361969815248  -0.6986882361605687 -2.420627649803484 -5.024556445072709  -0.8272574030199392 -2.685291244074475 -4.476216325063944  -0.8113210073272845 -3.118860027310894 -4.01596683617901  -0.7618552434953355 -3.481598098596065 -3.504026669625047  -0.7509882165597778 -3.609083979854663 -2.886473298216772  -0.7986167670519319 -3.732483084086931 -2.268445488219849  -0.8276969497603353 -3.810997815301134 -1.64593496945388  -0.7425506523451623 -3.557242155569485 -1.078322423839125  -0.7147449622328144 -3.21189056194362 -0.5511080601316157  -1.482234509376526 -2.778582553401298 -5.854479658363816e-16  -1.970737176894139 -2.437284655419533 2.764697292186607e-16  -2.362818572203899 -1.988727212877528 2.439101268600111e-16  -2.642390785384022 -1.462244173776716 5.051059276813266e-16  -2.812149102113852 -0.89052423419162 2.276851973687203e-16  -2.877946727920729 -0.2976446157883296 -1.219909928720168e-16  -2.842947107925845 0.2978601752284433 4.065446096494693e-17  -2.70313036896374 0.8776122116387211 -5.041496169361013e-16  -2.452324348076021 1.418519584933707 4.379274460317988e-16  -2.098265626135573 1.898294456130726 1.951060033519619e-16  -1.658391347368763 2.301023318502569 -1.789574489620802e-16  -1.154148079923361 2.619757341302747 -2.081203863085907e-15  -0.6042202207747882 2.851073703499478 -3.577841418755692e-16  -0.02416138323675775 2.990516581461941 4.065982498622179e-16  0.5710641261211448 3.028216945076794 -1.46882551317968e-16  0.6414151130412097 2.696325287154043 -4.983333021490838  0.771852374565919 2.778456367279237 -4.445188759107248  0.8805845204306011 2.73078881179073 -3.897720120696569  0.9481597620953167 2.69798349057175 -3.343104559074628  0.9815370707090804 2.778214865778854 -2.789250505759619  1.013475345489448 2.861817704396183 -2.235671116027784  1.055849759321274 2.898356228459238 -1.677594140621302  1.093646323460014 2.92793989028903 -1.118725590781912  1.124098871622056 2.957526991478201 -0.5594169689370629  0.2477015793419729 -2.415655802610486 -5.510682951113449  0.8844491790088972 -2.245867158009595 -5.438931443942415  1.464891069119211 -1.932330028996181 -5.373934600293736  1.955087092649627 -1.489613175355717 -5.319502697776375  2.318355026965356 -0.937054784961175 -5.279744576064058  2.524994411863564 -0.307899182343253 -5.257941630215678  2.574632820450045 0.3531084349228537 -5.254020561031156  2.465743861849647 1.006614152640354 -5.268052816559671  2.183897076015212 1.604484044160622 -5.301550147358176  1.722560240631265 2.07491696755195 -5.35506775502591  1.13806318635062 2.378906583716481 -5.422118662603529  1.742182153284979 2.73179858498085 5.854691697147836e-16  2.262480931380501 2.395264875892136 -2.601681534737615e-16  2.698000706832733 1.954727370266727 -3.903113804560263e-16  3.021530388777258 1.426473918441798 1.707421408502106e-16  3.223363606607101 0.8405687193648443 -2.844806418042028e-16  3.305434793487241 0.2261994274297442 -4.472186606099012e-16  3.269241566985055 -0.3926051469820059 3.171555149681837e-16  3.113478077610213 -0.9924495549400153 3.510830505762065e-16  2.840400132149515 -1.548806515270482 -1.707368614952523e-16  2.466120284856568 -2.042983582774378 9.732831365154574e-17  2.008125599488538 -2.460814027017948 -3.577575055983979e-16  1.482521285196868 -2.789563899556613 -4.886146623064541e-17  0.9057866143556688 -3.01678997208197 -2.439392613813594e-16  0.2964958724913082 -3.130681163554852 3.414395345104792e-16  -0.32338307292875 -3.126978161260848 2.926910878106614e-16  -1.29067345658392 -0.3506098753383553 -5.690421630247788  -1.068897680254163 -0.8451623229646739 -5.663999894259847  -0.6782440885714781 -1.219621806060448 -5.6187489875115  -0.168757542531344 -1.390394566692369 -5.560546895724229  0.3611301401510615 -1.294122251639114 -5.500717901478111  0.8191548613516448 -1.005201308695582 -5.449538098373106  1.16817203978903 -0.5892762115769014 -5.411042670828763  1.960898302630318 -0.551652302616722 -8.131516293641286e-17  1.751009740180289 -1.077278642631261 7.445724005953314e-16  1.394016468000002 -1.516729095803803 1.136104663605282e-15  0.9227767039454898 -1.830301465573364 3.434443593283319e-16  0.3780412068884804 -1.984007749105097 8.617772484356591e-16  -0.1885780664025548 -1.977994130030172 2.357202029695971e-16  -0.7327557451871473 -1.821291124380143 1.942410916395698e-17  -1.191068596016128 -1.491774666596192 2.975009434367945e-16  -1.480405544894888 -1.006855825633415 6.954512630084263e-16  -1.812414118534285 0.2561131097252937 -2.664867827914479  2.421751940242729 0.6298287624476981 -1.933377861698098  0.7556418177061754 1.42269463362527 -4.617654324361507  0.003134751711410342 1.574821943356493 -0.9318675177876981  1.015098001669947 1.51699057942374 -0.9441494884276413  0.6193243625380082 1.764115149411371 -1.862230514405671  -0.4757031201037318 1.549728101933577 -1.958273018773558  0.1126459993007786 1.698838152590054 -2.957602797129454  -0.3405660022430232 1.569615851499001 -4.678135257405353  1.818199099779932 0.7365610114574719 -3.763003518505052  -0.9541815370276669 1.23451227632913 -2.875526912859068  -1.269464226480212 1.016489154450913 -4.672047638709048  1.301562892980348 1.557566760682666 -2.802482532053872  -0.7813756340336595 1.414221906310649 -3.725761628685261  -1.58370798409762 0.5643609111372817 -3.581008460136619  -0.988817348255397 1.158392548936659 -1.014254585170146  -1.607700527190565 0.2800106654898483 -1.030081240453645  -1.388203055800784 0.7951310659851955 -1.943712885648593  0.8261955720421881 1.570157055202129 -3.620947225245673  1.681455131778566 1.410849015379531 -1.876189895849114  1.878739160554727 0.943024132521903 -0.9866418074548234  2.103426639579445 1.000735947836943 -2.593434794762663  1.62623803052506 0.6468498306152269 -4.727220189271843  -1.882943490361709 -0.1546739965127431 -1.761716647663214  0.05868355051519467 1.656538949473053 -3.863342338366238  2.465845305360337 0.2632819454094029 -2.663569745038379  1.994842599423799 0.5019775153043848 -0.4779055074204815  2.1671824130763 0.4980244878585698 -1.027636182799239  1.710213566460811 0.9718796190568162 -0.4957578884333736  1.845584590132108 0.2253887364997403 -4.583879812097906  1.579035044615276 0.2924902970866011 -5.101748935835201  1.409777182251665 0.7868327264427526 -5.07202467441607  -1.039178737375989 1.089168173550246 -5.170746090958521  -1.377687418630729 0.6683636420802941 -5.233117919580046  -1.641402128985454 0.4875654733502939 -4.648722230221863  -1.765467255797776 -0.2695484060062747 -1.079683539430899  -1.617858736076732 -0.08318463488274264 -0.5123563299218489  -1.474019211051276 0.4496529111656123 -0.5150171376928306  2.417677350191343 0.3274903893149403 -1.506992657970159 
[...]
<PointData  Tensors="strain"> 
<DataArray  type="Float64"  Name="strain"  NumberOfComponents="9" format="ascii">-4.9920163639170352e-02 -9.9200379476576742e-03 -2.4299592498010814e-01 -9.9200379476576742e-03 8.9564323454377707e-03 -2.1381067982834231e-02 -2.4299592498010814e-01 -2.1381067982834231e-02 1.7708344612844740e-01  -1.6971843443152845e-01 4.1502134789779252e-02 1.3304203851717358e-01 4.1502134789779252e-02 3.2427258127114378e-01 -7.6567985083100115e-02 1.3304203851717358e-01 -7.6567985083100115e-02 1.2805912334275329e-02  -1.3571633337331773e-01 6.5347432850224513e-02 -1.5673482213571266e-01 6.5347432850224513e-02 3.1240420585830303e-01 8.3998741490375256e-02 -1.5673482213571263e-01 8.3998741490375256e-02 -4.1018647834840096e-03  -6.5970660632140563e-02 -3.4759609710992817e-02 2.2506268761628237e-01 -3.4759609710992817e-02 2.8975370706937642e-03 -3.8239184904188400e-02 2.2506268761628237e-01 -3.8239184904188393e-02 1.9892007055023045e-01  8.3896370169785212e-02 -8.5031440132701964e-03 5.0268460829898144e-02 -8.5031440132701981e-03 -8.0844085740998994e-02 4.4638688353483100e-02 5.0268460829898144e-02 4.4638688353483100e-02 1.9372373412858378e-02  1.5236680122445934e-01 -5.8680311173388826e-03 -4.8570346567559028e-02 -5.8680311173388861e-03 -1.3161926637296859e-01 -3.2220768223397436e-02 -4.8570346567559028e-02 -3.2220768223397443e-02 2.1562870357242997e-02  5.6364463327446190e-03 1.7745740714750758e-02 -5.2062160295479248e-02 1.7745740714750758e-02 -1.8679370505989071e-02 1.4795487025456522e-01 -5.2062160295479248e-02 1.4795487025456522e-01 5.3545909273367262e-02  5.2958755862372534e-03 2.7473921916259247e-02 5.2391466720470570e-02 2.7473921916259247e-02 4.3459195997831775e-02 -6.2634816160609758e-02 5.2391466720470570e-02 -6.2634816160609758e-02 -3.5625649630320472e-02  -1.7814344548012478e-01 -3.8264538962071222e-02 -1.3300604205959801e-01 -3.8264538962071222e-02 1.6076611236178129e-01 -7.0983925702790260e-02 -1.3300604205959801e-01 -7.0983925702790246e-02 1.4517942723641747e-01  -2.0321197339318370e-01 -4.9541826532123447e-02 -1.0952559496910259e-01 -4.9541826532123447e-02 2.2860037226841864e-01 -5.9371341111550680e-02 -1.0952559496910259e-01 -5.9371341111550680e-02 1.2122328302482691e-01  -2.3215852705706463e-01 -9.2204613396714343e-03 -9.5560355065012148e-02 -9.2204613396714343e-03 2.5406174631841300e-01 -3.3742055134260283e-02 -9.5560355065012134e-02 -3.3742055134260283e-02 1.3885227535441291e-01  -2.5362898477821016e-01 2.4494060566859845e-02 2.0427201988708296e-03 2.4494060566859852e-02 2.4446681474214468e-01 -5.2995094522465848e-02 2.0427201988708287e-03 -5.2995094522465848e-02 1.7785910785060538e-01  -2.1799014923258456e-01 -4.3667167435662525e-03 1.1289596715128340e-01 -4.3667167435662499e-03 2.9788426476726093e-01 -6.7986087106439039e-02 1.1289596715128340e-01 -6.7986087106439066e-02 9.4994879674639376e-02  -2.0827956926054422e-01 -4.3469417344607963e-02 9.9875782514415035e-02 -4.3469417344607957e-02 3.4130644247749287e-01 -2.4120766293440957e-02 9.9875782514415035e-02 -2.4120766293440957e-02 3.8193274149431342e-02  -2.2065651086495372e-01 -1.6049648725201641e-02 8.8008875523858290e-02 -1.6049648725201638e-02 3.5216339450775075e-01 -1.5102735070868239e-02 8.8008875523858277e-02 -1.5102735070868239e-02 4.2735662736108147e-02  -2.0261653860660175e-01 4.5353973930485425e-03 1.1577150222571979e-01 4.5353973930485425e-03 3.3266102029509742e-01 -4.0171579660962381e-02 1.1577150222571975e-01 -4.0171579660962381e-02 3.9775746034893415e-02  -1.6278098331092891e-01 2.9004939140329419e-02 1.5220185344125103e-01 2.9004939140329419e-02 3.2278177591896867e-01 -5.3045576846016226e-02 1.5220185344125103e-01 -5.3045576846016226e-02 1.4478105223360011e-02  -1.4181022533652055e-01 -1.2275851892883020e-01 1.6303355952329776e-01 -1.2275851892883020e-01 2.6233256558241380e-01 -1.5814918933819953e-02 1.6303355952329776e-01 -1.5814918933819956e-02 4.5563247922925709e-02  7.1885893976722012e-03 -2.4564817192093280e-01 1.2988062246168169e-01 -2.4564817192093280e-01 9.9322071202110340e-02 4.9335737021946623e-02 1.2988062246168169e-01 4.9335737021946623e-02 6.0436743286389670e-02  1.8571365256358874e-01 -1.9195144456056454e-01 9.9196175280936869e-02 -1.9195144456056454e-01 -1.0608029062996649e-01 9.9459656614721337e-02 9.9196175280936869e-02 9.9459656614721337e-02 8.1160582907318257e-02  2.6053797129543566e-01 -4.3701712710620524e-02 6.2007595409932476e-02 -4.3701712710620524e-02 -1.8261750513992545e-01 1.4796579016408312e-01 6.2007595409932476e-02 1.4796579016408312e-01 8.5978882463008430e-02  2.3340041871820352e-01 1.0775592710671947e-01 -6.2426855381100977e-03 1.0775592710671945e-01 -1.4050124644838011e-01 1.7910084936582918e-01 -6.2426855381100942e-03 1.7910084936582912e-01 7.5819110496233286e-02  1.0597586839787963e-01 2.0584562751752369e-01 -6.1570443166745710e-02 2.0584562751752369e-01 7.9866512688313244e-03 1.7028067067967081e-01 -6.1570443166745710e-02 1.7028067067967081e-01 4.8423012763899168e-02  -4.3570143045596470e-02 1.8776452599093582e-01 -1.1480107902040780e-01 1.8776452599093582e-01 1.7954927442007565e-01 1.4104448328200692e-01 -1.1480107902040780e-01 1.4104448328200692e-01 3.0166017067577020e-02  -1.8868874647418218e-01 -9.6900828232791645e-03 1.1923891758078516e-01 -9.6900828232791645e-03 1.3821852928257095e-01 1.2818242838491974e-02 1.1923891758078516e-01 1.2818242838491976e-02 1.6260430372925816e-01  -1.9257170641457999e-01 -2.9666967734931868e-02 1.0972244561744225e-01 -2.9666967734931868e-02 2.2042750453553386e-01 7.8438249627649833e-03 1.0972244561744225e-01 7.8438249627649816e-03 9.9054934769542177e-02  -2.1959822712701549e-01 -3.4350100567252136e-02 9.5760712582969157e-02 -3.4350100567252136e-02 2.3105495617965985e-01 2.7825321299776100e-02 9.5760712582969157e-02 2.7825321299776079e-02 1.3733585575790710e-01  -2.5230269997650429e-01 -1.9024973802901513e-02 1.9351496621023444e-02 -1.9024973802901513e-02 2.5887999382953447e-01 5.0434490949868051e-02 1.9351496621023451e-02 5.0434490949868044e-02 1.5709242377879251e-01  -2.4805906852373821e-01 7.4728519808537589e-04 -4.3788582492165024e-02 7.4728519808537589e-04 2.8819315321688471e-01 8.4109410077714455e-02 -4.3788582492165024e-02 8.4109410077714469e-02 1.3075411677912732e-01  -2.2970727977819996e-01 -2.4724084821476762e-02 -6.0249740871962811e-02 -2.4724084821476762e-02 3.2193422599301597e-01 9.7208975437484871e-02 -6.0249740871962804e-02 9.7208975437484871e-02 7.7498545043395484e-02  -2.3608719852803409e-01 -1.5385311089384086e-02 -4.7302862635780929e-02 -1.5385311089384086e-02 3.1915361924472224e-01 1.0938423204338031e-01 -4.7302862635780915e-02 1.0938423204338033e-01 8.8095342104011987e-02  -2.4049464167950943e-01 3.7657654296859785e-02 -6.2765416647493744e-02 3.7657654296859785e-02 3.0172758101700614e-01 9.5164928876272897e-02 -6.2765416647493744e-02 9.5164928876272911e-02 1.1471841113901585e-01  -1.9523602149626904e-01 5.5202311566436083e-02 -1.2639887225754434e-01 5.5202311566436103e-02 2.9489294254079784e-01 9.9855733373701530e-02 -1.2639887225754431e-01 9.9855733373701530e-02 7.7944989841902901e-02  -9.5510541875399091e-02 1.3135786459655260e-03 2.1544034214514998e-01 1.3135786459655256e-03 1.3264469317491853e-02 -6.2469589595113797e-02 2.1544034214514998e-01 -6.2469589595113797e-02 2.2353221491240277e-01  -7.8584431807768376e-02 3.1408155967913250e-02 1.8211311724941068e-01 3.1408155967913257e-02 -4.9299252214695432e-03 -1.2456027793915268e-01 1.8211311724941068e-01 -1.2456027793915271e-01 2.2228581640364692e-01  -5.9603234521962867e-02 6.1552877185056622e-02 1.4956104778871276e-01 6.1552877185056622e-02 -3.3265990736067917e-02 -1.5852582273328958e-01 1.4956104778871276e-01 -1.5852582273328955e-01 2.3666161661953974e-01  -1.8368554906142715e-02 4.5455426583763267e-02 8.5212162015166140e-02 4.5455426583763267e-02 -6.7696483917568398e-02 -1.9777394964017034e-01 8.5212162015166140e-02 -1.9777394964017034e-01 2.3306002003188214e-01  2.1038639207098374e-04 3.2217574262980990e-02 4.9988328322308144e-02 3.2217574262980990e-02 -9.4995042321935494e-02 -2.1318340312272288e-01 4.9988328322308144e-02 -2.1318340312272288e-01 2.4792929823973486e-01  4.1682011959508717e-03 2.1067820077700083e-03 -3.1159417874047829e-02 2.1067820077700083e-03 -9.8086386674897136e-02 -2.2116744539029690e-01 -3.1159417874047829e-02 -2.2116744539029690e-01 2.5317062698200532e-01  1.0980197036278784e-02 -2.0846563074473981e-02 -7.9571966018790241e-02 -2.0846563074473981e-02 -8.6876845089134125e-02 -2.1341590031409874e-01 -7.9571966018790241e-02 -2.1341590031409874e-01 2.1876008200155694e-01  -2.0995663439270135e-02 -5.1198355082462094e-02 -1.8090156707103069e-01 -5.1198355082462094e-02 -5.0083287166694003e-02 -1.5140196308034790e-01 -1.8090156707103069e-01 -1.5140196308034790e-01 2.3182388520403158e-01  -7.0754919034940578e-02 -4.2512561706111202e-02 -2.2793350346124852e-01 -4.2512561706111202e-02 -2.3849192593134637e-02 -7.8913026939022815e-02 -2.2793350346124852e-01 -7.8913026939022815e-02 2.6026253248270553e-01  7.0549149597761429e-02 3.2515636303434972e-02 3.1716529976771865e-02 3.2515636303434972e-02 -7.1414106155007276e-02 6.6277947526964975e-02 3.1716529976771865e-02 6.6277947526964961e-02 2.4076023622671149e-02  6.1157248327725691e-02 6.5837956308362602e-02 1.8190278957051137e-02 6.5837956308362588e-02 -5.8142267287961326e-02 7.1003622972456479e-02 1.8190278957051127e-02 7.1003622972456437e-02 2.3499472222621335e-02  9.8486348708217326e-03 7.5486348771019979e-02 -4.8924728397479892e-03 7.5486348771019979e-02 -1.8349557323979984e-02 7.5065866092610303e-02 -4.8924728397479874e-03 7.5065866092610303e-02 3.0787770512486740e-02  -2.4469830799047129e-02 8.2518456701264037e-02 -4.0066877106145593e-02 8.2518456701264037e-02 4.7667468559351660e-02 6.7290752553054681e-02 -4.0066877106145593e-02 6.7290752553054681e-02 4.5641884289562753e-03  -5.8776069803947624e-02 5.3170156859118314e-02 -5.5180004186185877e-02 5.3170156859118335e-02 8.7530507009788427e-02 6.0130862080742281e-02 -5.5180004186185877e-02 6.0130862080742281e-02 8.8219087574543514e-05  -7.8347090210130907e-02 1.7148037939586684e-02 -6.5874045550362192e-02 1.7148037939586674e-02 9.4108460584623632e-02 4.2901254415880753e-02 -6.5874045550362192e-02 4.2901254415880753e-02 1.2518996869904585e-02  -7.0515294606554063e-02 -2.1163984686545106e-02 -8.1241937526594740e-02 -2.1163984686545099e-02 9.1086948454971950e-02 2.6456570410915585e-02 -8.1241937526594754e-02 2.6456570410915578e-02 1.0272859942122440e-02  -4.1487940383369441e-02 -7.0096595947092999e-02 -6.9724840291941301e-02 -7.0096595947092999e-02 7.1448138166768330e-02 1.5576232053231909e-03 -6.9724840291941315e-02 1.5576232053231900e-03 -4.6127086249229477e-03  3.1498849747556125e-03 -8.9254072728066791e-02 -7.7455644637087553e-02 -8.9254072728066805e-02 6.3834567939050710e-03 1.1124462415072629e-02 -7.7455644637087567e-02 1.1124462415072627e-02 1.5454073471793490e-02  4.4169360467148394e-02 -3.5845272060428653e-02 -7.4250577026825818e-02 -3.5845272060428653e-02 -6.7558686690229672e-02 -1.6666755588752708e-02 -7.4250577026825804e-02 -1.6666755588752712e-02 3.6913191784474345e-02  1.1288682060101797e-01 -5.1997469136016258e-02 -6.0233139910433525e-02 -5.1997469136016258e-02 -9.9738595969531441e-02 -3.9391175136684040e-02 -6.0233139910433525e-02 -3.9391175136684040e-02 2.0820244251493619e-02  1.8475288159790754e-01 -3.7829709763385684e-02 -6.7687636101892837e-02 -3.7829709763385670e-02 -1.6092876248457053e-01 -8.9165197967301574e-02 -6.7687636101892837e-02 -8.9165197967301574e-02 6.7749236520768266e-02  1.8113768843709013e-01 -2.4969779737193762e-02 -6.0174871686548455e-02 -2.4969779737193762e-02 -9.9702176782720392e-02 -1.4254800334517712e-01 -6.0174871686548462e-02 -1.4254800334517712e-01 1.5625966631816982e-02  1.5017978552903996e-01 -4.8914714507408679e-03 -3.5280160148645059e-02 -4.8914714507408722e-03 -7.3661375459377065e-02 -1.1824430199814723e-01 -3.5280160148645059e-02 -1.1824430199814723e-01 -1.8525272548884100e-02  1.2850426075437216e-01 3.4908583260980282e-03 -2.6709405183242784e-02 3.4908583260980222e-03 -1.0252848258080187e-01 -7.8808567005452496e-02 -2.6709405183242791e-02 -7.8808567005452496e-02 1.2779538648758660e-02  1.0818814101383099e-01 -2.6033362963144898e-02 -4.7396838448215621e-02 -2.6033362963144908e-02 -1.3635860261566848e-01 -4.9713180435648659e-02 -4.7396838448215621e-02 -4.9713180435648659e-02 7.5876310451489043e-02  8.4194724934401222e-02 -2.8523775474452777e-02 -3.7525681993812024e-02 -2.8523775474452777e-02 -1.3103942518451978e-01 -2.5880745365210314e-02 -3.7525681993812024e-02 -2.5880745365210303e-02 8.3511682260303602e-02  5.5030850319773020e-02 -4.1265886691310795e-02 -7.2561825748129107e-03 -4.1265886691310795e-02 -8.9837713648904569e-02 3.2576252076803314e-02 -7.2561825748129125e-03 3.2576252076803314e-02 5.0965090954739840e-02  4.0401796460733323e-02 -6.9761091063458514e-02 -3.4342933119730593e-04 -6.9761091063458514e-02 -7.0986862230776326e-02 1.0461420776436085e-01 -3.4342933119730615e-04 1.0461420776436085e-01 7.2341654165751113e-02  4.1752654051646403e-02 -5.3237671160404149e-02 -1.7434740807652248e-02 -5.3237671160404149e-02 -9.3004239521399384e-02 1.3558952839207117e-01 -1.7434740807652248e-02 1.3558952839207117e-01 1.1507933499562552e-01  1.3405600673574977e-02 1.2211403256533426e-02 -2.4173594433123134e-02 1.2211403256533426e-02 -2.3223355707275732e-02 1.4011124657017168e-01 -2.4173594433123134e-02 1.4011124657017168e-01 3.8812114653509866e-02  1.8314705891867275e-02 4.3840992897695320e-03 -3.4560726896941036e-03 4.3840992897695320e-03 -2.4575174075445381e-02 1.2881438317941848e-01 -3.4560726896941036e-03 1.2881438317941848e-01 2.6807503584329765e-02  2.3486251080315022e-02 -9.1459964832943091e-03 2.4761034140519261e-02 -9.1459964832943091e-03 -2.8835067172835106e-02 1.2506415283882513e-01 2.4761034140519261e-02 1.2506415283882513e-01 2.6564487473698842e-02  2.9199334978731475e-02 -2.1363145827731005e-02 4.2772513325997810e-02 -2.1363145827731005e-02 -2.2128013947434980e-02 1.1124345933857370e-01 4.2772513325997810e-02 1.1124345933857370e-01 1.4072026282613923e-02  2.2519079436861742e-02 -1.8815550628155528e-02 6.3942130884002565e-02 -1.8815550628155528e-02 -1.7476425467944801e-02 1.0096431315507789e-01 6.3942130884002565e-02 1.0096431315507789e-01 1.2315598641278840e-02  4.6478717635652374e-02 -1.2486638574964636e-02 5.3989952606570996e-02 -1.2486638574964636e-02 5.7187456220162542e-04 7.5278453771425238e-02 5.3989952606571016e-02 7.5278453771425238e-02 -3.9058141744279427e-02  5.0689071114462740e-02 -1.8884813899159379e-02 6.6997448223648989e-02 -1.8884813899159379e-02 5.2997283707677456e-03 4.4011435147368348e-02 6.6997448223648989e-02 4.4011435147368348e-02 -4.7490369043339281e-02  1.8908811251163300e-02 -3.7076014727928666e-02 9.3193329470508346e-02 -3.7076014727928666e-02 2.0406914846719554e-02 3.8630792464079203e-02 9.3193329470508346e-02 3.8630792464079203e-02 -2.0029076895192229e-02  2.3624101243752041e-02 -3.9398167119073783e-02 8.4945257484137088e-02 -3.9398167119073797e-02 4.0867725676500523e-02 8.5571270518305671e-03 8.4945257484137088e-02 8.5571270518305671e-03 -4.9371182336774323e-02  9.6536707370689090e-03 -3.9094413143608335e-02 8.8202097086469894e-02 -3.9094413143608328e-02 5.7910679152857671e-02 -4.6355938211249566e-03 8.8202097086469894e-02 -4.6355938211249566e-03 -5.0997091627683747e-02  -1.5239042856593554e-02 -2.2459671497590539e-02 8.1390804073874043e-02 -2.2459671497590539e-02 6.7179447117479418e-02 -2.8310574561044341e-02 8.1390804073874043e-02 -2.8310574561044341e-02 -3.6161898286293410e-02  -2.3240438988027138e-02 5.7300690716701038e-03 8.1048773340290911e-02 5.7300690716701038e-03 5.5663512781072247e-02 -4.1587987770072748e-02 8.1048773340290911e-02 -4.1587987770072748e-02 -1.4466641828271867e-02  3.9229331586471744e-03 8.6467265760896451e-03 5.1692406552994646e-02 8.6467265760896451e-03 6.3345866875213819e-02 -4.8043152537283383e-02 5.1692406552994646e-02 -4.8043152537283383e-02 -5.6160114778526421e-02  1.1930123540812691e-02 -3.1849549849284960e-02 -1.2541204207525655e-02 -3.1849549849284960e-02 7.5159322130040923e-02 -6.9754854659760016e-02 -1.2541204207525651e-02 -6.9754854659760016e-02 -7.8067512904078262e-02  -1.5527589537514394e-02 2.6281100081587527e-02 3.9203071515887658e-02 2.6281100081587527e-02 4.5274224909977644e-02 -6.3100703455504059e-02 3.9203071515887658e-02 -6.3100703455504059e-02 -1.6608696390561634e-02  7.2540798481995045e-02 -3.5422230565780699e-02 4.3967636817629920e-02 -3.5422230565780664e-02 -9.1005578221952765e-02 2.9473144989203635e-02 4.3967636817629920e-02 2.9473144989203628e-02 4.2141301299005035e-02  7.5008423455035375e-02 -3.8727508778453108e-02 4.9061764911111944e-02 -3.8727508778453108e-02 -1.0025285940750289e-01 1.2991065519076953e-03 4.9061764911111944e-02 1.2991065519076942e-03 4.8153534550085315e-02  9.2008731900316554e-02 -6.3921549279659970e-02 5.2847159355811628e-02 -6.3921549279659970e-02 -1.2435499176761378e-01 -7.5563399305637888e-03 5.2847159355811628e-02 -7.5563399305637888e-03 7.4096586496480502e-02  1.2218600721716788e-01 -6.2453438275253091e-02 5.7925261610263387e-02 -6.2453438275253091e-02 -1.4972783954545218e-01 1.3791552768152596e-02 5.7925261610263380e-02 1.3791552768152596e-02 8.9505581544887330e-02  1.1172465040010411e-01 -5.4392403407968609e-02 5.5663257750437664e-02 -5.4392403407968609e-02 -1.4479446696523818e-01 2.5533063694422882e-02 5.5663257750437678e-02 2.5533063694422882e-02 9.0335030450658979e-02  1.0174075729156443e-01 -4.0715650965727768e-02 4.2770471820354095e-02 -4.0715650965727768e-02 -1.4457263964091432e-01 2.1365721749809479e-02 4.2770471820354108e-02 2.1365721749809479e-02 9.2079892981054845e-02  7.4444484641627756e-02 -3.3800182413530923e-02 3.1982805007818360e-02 -3.3800182413530923e-02 -1.3473128254814787e-01 9.2701148561067370e-03 3.1982805007818360e-02 9.2701148561067370e-03 9.9946236500610866e-02  4.9733694764913045e-02 -3.1485911494078984e-02 5.8765756829205845e-02 -3.1485911494078984e-02 -1.1599609442961593e-01 -9.9119588420615232e-03 5.8765756829205845e-02 -9.9119588420615232e-03 9.6270280207778336e-02  4.0211395813285755e-02 -1.4266739215550592e-02 6.6027218210409050e-02 -1.4266739215550592e-02 -3.6426416989524819e-02 -4.4881108375988740e-03 6.6027218210409050e-02 -4.4881108375988740e-03 2.3188806933124796e-04  1.3593796111602255e-01 4.8808075241340954e-02 -3.5325278484350207e-02 4.8808075241340954e-02 -1.2159760555405347e-01 -6.2400138015578518e-02 -3.5325278484350207e-02 -6.2400138015578505e-02 2.9460603016449528e-02  1.1254559489536303e-01 1.2281090376212729e-01 -1.0259691985067588e-02 1.2281090376212729e-01 -8.7026664132547393e-02 -6.8283866049330913e-02 -1.0259691985067591e-02 -6.8283866049330927e-02 2.8853918651602119e-02  3.1637725184619832e-02 1.4213564704311393e-01 1.0461365809926317e-02 1.4213564704311393e-01 -2.8847532077090645e-02 -6.6959723176943944e-02 1.0461365809926317e-02 -6.6959723176943931e-02 4.6093030444547538e-02  -5.1125585705367460e-02 1.3814829154305722e-01 2.6710470409172203e-02 1.3814829154305722e-01 5.1021493045629210e-02 -6.2449385481732553e-02 2.6710470409172203e-02 -6.2449385481732553e-02 5.0535730734198883e-02  -9.9643494140785910e-02 8.3190257966910708e-02 4.0467779219633834e-02 8.3190257966910708e-02 7.6404628025059040e-02 -6.1438956461148497e-02 4.0467779219633834e-02 -6.1438956461148497e-02 6.4399079918309510e-02  -1.0734070730624694e-01 2.9427079354463072e-02 5.9715909438035300e-02 2.9427079354463072e-02 1.0263543441723377e-01 -4.4498895930524369e-02 5.9715909438035314e-02 -4.4498895930524369e-02 4.0864860623423573e-02  -8.4345221988134197e-02 -3.0798269011420649e-02 7.1229810764975407e-02 -3.0798269011420652e-02 8.4978305679623611e-02 -2.6771036702101118e-02 7.1229810764975393e-02 -2.6771036702101118e-02 2.6148789751875484e-02  -8.1106410761444356e-02 -4.5253999607348751e-02 5.5167042347771915e-02 -4.5253999607348758e-02 5.8739224619857006e-02 -2.4264988457918642e-02 5.5167042