<?xml version="1.0"?>
<VTKFile type="UnstructuredGrid"  version="0.1"  >
<UnstructuredGrid>
<Piece  NumberOfPoints="1268" NumberOfCells="4847">
<Points>
<DataArray  type="Float64"  NumberOfComponents="3"  format="ascii">1.994716987487452 0.01317707561264319 -1.202466945460223e-11  1.374072606111497 -0.08614134488653273 -5.388997575085332  -1.285941478930618 0.1916557790035214 -5.691288663606836  -1.59032616235459 -0.4515196446136259 1.626303258728257e-17  0.4950030257755884 2.521650519233041 -5.495391852657774  -0.4107718940653654 -2.429115409112172 -5.58531208084276  -0.9314707163843408 -3.006923447963563 4.87890977618477e-17  1.161824811771535 2.948440156756841 -3.391384395534658e-14  2.146749234505421 0.002696741478414759 -0.5615078450779066  2.330988047973839 -0.000873250973709995 -1.113141311680313  2.540713632977715 -0.1384292375506191 -1.637427654548237  2.645241452520652 -0.2872312815961211 -2.18637082393926  2.504842461151312 -0.2752146673621067 -2.746850782899552  2.287876352721185 -0.2088259978706829 -3.283011632728322  2.137771360922677 -0.2093380261300688 -3.844996501809416  1.970142554575494 -0.2193701374385486 -4.401638277082749  1.701580801829277 -0.1696632515169769 -4.915066532844666  1.398049690886424 0.4419377546899956 -5.387643705321969  1.183972204621215 0.9208338616597355 -5.413149504812257  0.7621482426349403 1.234356207118232 -5.461782499987256  0.2539805730796886 1.370727420898931 -5.519751404145364  -0.2689415860383004 1.319053689498898 -5.578906487138381  -0.7357170559581984 1.076180709179107 -5.631191713357971  -1.086003096318238 0.6812820615514149 -5.669884670156524  -1.65706961757681 -0.5275128747266272 -0.6240725009925172  -1.829082870387909 -0.8347372240299333 -1.153553189134448  -2.030635262011336 -1.097965926806997 -1.693320688638939  -2.148557703924963 -0.9683820133813712 -2.295450526931833  -2.119047321408695 -0.7521727279271558 -2.890676896601294  -1.972500555455803 -0.7106310836492745 -3.509380855831461  -1.885028119342598 -0.4902108162504233 -4.093718100793141  -1.832050776792238 -0.1313823297003599 -4.617858136599065  -1.636180550340053 0.1151199882480144 -5.165527944859976  -1.540434086810702 0.1014447694855235 -7.644826989049428e-17  -1.339902801239663 0.6191128040412099 2.218327606354497e-17  -0.9949589579071262 1.053322092476122 2.12059320661159e-17  -0.5243975458638882 1.346285776146202 7.754217898549941e-16  0.01399251627036286 1.481823287560149 3.252316763596149e-17  0.5696211504784076 1.47677978548424 -7.207855520904863e-17  1.105448032340458 1.331487337928338 1.951563910473908e-16  1.561367740818086 1.018090979386763 -2.179459114756194e-16  1.860006992193919 0.551530302300456 1.369433074745588e-16  -0.152869286718376 2.506583809965366 -5.568804938302105  -0.7781210310064858 2.335338381675429 -5.639249366957451  -1.340550096787874 2.011723800088065 -5.702178028336585  -1.803922993566052 1.555830170950866 -5.753534898075912  -2.144678763029901 1.000979069722826 -5.790734833138769  -2.346903237737564 0.3811866585909049 -5.812061421922149  -2.406990243842066 -0.2684488461825228 -5.817196438260218  -2.318433628103212 -0.9144163570965761 -5.805488779558074  -2.059391262210163 -1.511004864267824 -5.774580158166454  -1.615755841275718 -1.983465489741105 -5.72306417450185  -1.043145925381342 -2.287058241276404 -5.657361969815248  -0.6986882361605687 -2.420627649803484 -5.024556445072709  -0.8272574030199392 -2.685291244074475 -4.476216325063944  -0.8113210073272845 -3.118860027310894 -4.01596683617901  -0.7618552434953355 -3.481598098596065 -3.504026669625047  -0.7509882165597778 -3.609083979854663 -2.886473298216772  -0.7986167670519319 -3.732483084086931 -2.268445488219849  -0.8276969497603353 -3.810997815301134 -1.64593496945388  -0.7425506523451623 -3.557242155569485 -1.078322423839125  -0.7147449622328144 -3.21189056194362 -0.5511080601316157  -1.482234509376526 -2.778582553401298 -5.854479658363816e-16  -1.970737176894139 -2.437284655419533 2.764697292186607e-16  -2.362818572203899 -1.988727212877528 2.439101268600111e-16  -2.642390785384022 -1.462244173776716 5.051059276813266e-16  -2.812149102113852 -0.89052423419162 2.276851973687203e-16  -2.877946727920729 -0.2976446157883296 -1.219909928720168e-16  -2.842947107925845 0.2978601752284433 4.065446096494693e-17  -2.70313036896374 0.8776122116387211 -5.041496169361013e-16  -2.452324348076021 1.418519584933707 4.379274460317988e-16  -2.098265626135573 1.898294456130726 1.951060033519619e-16  -1.658391347368763 2.301023318502569 -1.789574489620802e-16  -1.154148079923361 2.619757341302747 -2.081203863085907e-15  -0.6042202207747882 2.851073703499478 -3.577841418755692e-16  -0.02416138323675775 2.990516581461941 4.065982498622179e-16  0.5710641261211448 3.028216945076794 -1.46882551317968e-16  0.6414151130412097 2.696325287154043 -4.983333021490838  0.771852374565919 2.778456367279237 -4.445188759107248  0.8805845204306011 2.73078881179073 -3.897720120696569  0.9481597620953167 2.69798349057175 -3.343104559074628  0.9815370707090804 2.778214865778854 -2.789250505759619  1.013475345489448 2.861817704396183 -2.235671116027784  1.055849759321274 2.898356228459238 -1.677594140621302  1.093646323460014 2.92793989028903 -1.118725590781912  1.124098871622056 2.957526991478201 -0.5594169689370629  0.2477015793419729 -2.415655802610486 -5.510682951113449  0.8844491790088972 -2.245867158009595 -5.438931443942415  1.464891069119211 -1.932330028996181 -5.373934600293736  1.955087092649627 -1.489613175355717 -5.319502697776375  2.318355026965356 -0.937054784961175 -5.279744576064058  2.524994411863564 -0.307899182343253 -5.257941630215678  2.574632820450045 0.3531084349228537 -5.254020561031156  2.465743861849647 1.006614152640354 -5.268052816559671  2.183897076015212 1.604484044160622 -5.301550147358176  1.722560240631265 2.07491696755195 -5.35506775502591  1.13806318635062 2.378906583716481 -5.422118662603529  1.742182153284979 2.73179858498085 5.854691697147836e-16  2.262480931380501 2.395264875892136 -2.601681534737615e-16  2.698000706832733 1.954727370266727 -3.903113804560263e-16  3.021530388777258 1.426473918441798 1.707421408502106e-16  3.223363606607101 0.8405687193648443 -2.844806418042028e-16  3.305434793487241 0.2261994274297442 -4.472186606099012e-16  3.269241566985055 -0.3926051469820059 3.171555149681837e-16  3.113478077610213 -0.9924495549400153 3.510830505762065e-16  2.840400132149515 -1.548806515270482 -1.707368614952523e-16  2.466120284856568 -2.042983582774378 9.732831365154574e-17  2.008125599488538 -2.460814027017948 -3.577575055983979e-16  1.482521285196868 -2.789563899556613 -4.886146623064541e-17  0.9057866143556688 -3.01678997208197 -2.439392613813594e-16  0.2964958724913082 -3.130681163554852 3.414395345104792e-16  -0.32338307292875 -3.126978161260848 2.926910878106614e-16  -1.29067345658392 -0.3506098753383553 -5.690421630247788  -1.068897680254163 -0.8451623229646739 -5.663999894259847  -0.6782440885714781 -1.219621806060448 -5.6187489875115  -0.168757542531344 -1.390394566692369 -5.560546895724229  0.3611301401510615 -1.294122251639114 -5.500717901478111  0.8191548613516448 -1.005201308695582 -5.449538098373106  1.16817203978903 -0.5892762115769014 -5.411042670828763  1.960898302630318 -0.551652302616722 -8.131516293641286e-17  1.751009740180289 -1.077278642631261 7.445724005953314e-16  1.394016468000002 -1.516729095803803 1.136104663605282e-15  0.9227767039454898 -1.830301465573364 3.434443593283319e-16  0.3780412068884804 -1.984007749105097 8.617772484356591e-16  -0.1885780664025548 -1.977994130030172 2.357202029695971e-16  -0.7327557451871473 -1.821291124380143 1.942410916395698e-17  -1.191068596016128 -1.491774666596192 2.975009434367945e-16  -1.480405544894888 -1.006855825633415 6.954512630084263e-16  -1.812414118534285 0.2561131097252937 -2.664867827914479  2.421751940242729 0.6298287624476981 -1.933377861698098  0.7556418177061754 1.42269463362527 -4.617654324361507  0.003134751711410342 1.574821943356493 -0.9318675177876981  1.015098001669947 1.51699057942374 -0.9441494884276413  0.6193243625380082 1.764115149411371 -1.862230514405671  -0.4757031201037318 1.549728101933577 -1.958273018773558  0.1126459993007786 1.698838152590054 -2.957602797129454  -0.3405660022430232 1.569615851499001 -4.678135257405353  1.818199099779932 0.7365610114574719 -3.763003518505052  -0.9541815370276669 1.23451227632913 -2.875526912859068  -1.269464226480212 1.016489154450913 -4.672047638709048  1.301562892980348 1.557566760682666 -2.802482532053872  -0.7813756340336595 1.414221906310649 -3.725761628685261  -1.58370798409762 0.5643609111372817 -3.581008460136619  -0.988817348255397 1.158392548936659 -1.014254585170146  -1.607700527190565 0.2800106654898483 -1.030081240453645  -1.388203055800784 0.7951310659851955 -1.943712885648593  0.8261955720421881 1.570157055202129 -3.620947225245673  1.681455131778566 1.410849015379531 -1.876189895849114  1.878739160554727 0.943024132521903 -0.9866418074548234  2.103426639579445 1.000735947836943 -2.593434794762663  1.62623803052506 0.6468498306152269 -4.727220189271843  -1.882943490361709 -0.1546739965127431 -1.761716647663214  0.05868355051519467 1.656538949473053 -3.863342338366238  2.465845305360337 0.2632819454094029 -2.663569745038379  1.994842599423799 0.5019775153043848 -0.4779055074204815  2.1671824130763 0.4980244878585698 -1.027636182799239  1.710213566460811 0.9718796190568162 -0.4957578884333736  1.845584590132108 0.2253887364997403 -4.583879812097906  1.579035044615276 0.2924902970866011 -5.101748935835201  1.409777182251665 0.7868327264427526 -5.07202467441607  -1.039178737375989 1.089168173550246 -5.170746090958521  -1.377687418630729 0.6683636420802941 -5.233117919580046  -1.641402128985454 0.4875654733502939 -4.648722230221863  -1.765467255797776 -0.2695484060062747 -1.079683539430899  -1.617858736076732 -0.08318463488274264 -0.5123563299218489  -1.474019211051276 0.4496529111656123 -0.5150171376928306  2.417677350191343 0.3274903893149403 -1.506992657970159 
[...]
<PointData  Tensors="strain"> 
<DataArray  type="Float64"  Name="strain"  NumberOfComponents="9" format="ascii">-4.5318916297938674e-02 -9.8743451584620053e-03 -2.9198726166946354e-01 -9.8743451584620053e-03 1.1367841909695258e-02 -4.0903253323957479e-02 -2.9198726166946354e-01 -4.0903253323957479e-02 2.2547286077292084e-01  -1.8752365161638651e-01 5.0612058126627266e-02 1.4986156830138528e-01 5.0612058126627266e-02 3.8424791275501219e-01 -8.4419132545984640e-02 1.4986156830138514e-01 -8.4419132545984640e-02 2.4524553148612412e-02  -1.4502930452661245e-01 7.8432251312867726e-02 -1.7985572302942607e-01 7.8432251312867726e-02 3.6196617513676438e-01 9.4997947323415599e-02 -1.7985572302942607e-01 9.4997947323415613e-02 9.8109321499415553e-03  -6.6114001420538540e-02 -3.7614733858754461e-02 2.7252046838817096e-01 -3.7614733858754454e-02 3.3299098461341504e-03 -2.8640158991794586e-02 2.7252046838817096e-01 -2.8640158991794586e-02 2.5280607690450385e-01  9.6378463480523438e-02 -1.0646726170243507e-02 5.9007923743390145e-02 -1.0646726170243507e-02 -9.4248916777852382e-02 5.8569244344674039e-02 5.9007923743390145e-02 5.8569244344674039e-02 3.0562777053740463e-02  1.7217878594391861e-01 -7.2822933749074571e-03 -5.3436789426154457e-02 -7.2822933749074484e-03 -1.5224211025512904e-01 -3.9394020248291944e-02 -5.3436789426154457e-02 -3.9394020248291951e-02 3.5521741331699212e-02  -3.0696474857850144e-04 1.1905498565126084e-02 -4.8757821702665974e-02 1.1905498565126084e-02 -1.8123602453706516e-02 1.8421505403613825e-01 -4.8757821702665974e-02 1.8421505403613825e-01 8.0132387532294083e-02  6.5243377999815748e-03 2.9237924931802432e-02 5.9424547781443522e-02 2.9237924931802432e-02 4.7333072151017161e-02 -8.5842683318623977e-02 5.9424547781443522e-02 -8.5842683318623977e-02 -3.4517477990291298e-02  -1.8945955377700469e-01 -4.4202320819883088e-02 -1.6419386812381814e-01 -4.4202320819883095e-02 1.9293976084828457e-01 -8.4290751364224356e-02 -1.6419386812381814e-01 -8.4290751364224356e-02 1.7497472067762690e-01  -2.2138584683807752e-01 -6.0070177364803995e-02 -1.3080631473901233e-01 -6.0070177364803995e-02 2.7340631550392613e-01 -6.6099629612489316e-02 -1.3080631473901233e-01 -6.6099629612489316e-02 1.4745587170981905e-01  -2.5424707158378473e-01 -1.0486652427454817e-02 -1.1289722527277930e-01 -1.0486652427454821e-02 2.9876050412474581e-01 -3.6018196959812530e-02 -1.1289722527277930e-01 -3.6018196959812523e-02 1.6936861237559420e-01  -2.7867613788658685e-01 2.7868544385968117e-02 1.8562425179040950e-03 2.7868544385968117e-02 2.8645451630186297e-01 -5.6982421977976601e-02 1.8562425179040954e-03 -5.6982421977976601e-02 2.1402930210321397e-01  -2.3806651181062088e-01 -4.3298650406274333e-03 1.3118538275739744e-01 -4.3298650406274420e-03 3.4424946641353971e-01 -7.3998036646614279e-02 1.3118538275739747e-01 -7.3998036646614307e-02 1.2200955934421857e-01  -2.2909286304679932e-01 -4.6872580324326014e-02 1.1623666994053083e-01 -4.6872580324326008e-02 3.9599802555000324e-01 -2.6442829770618292e-02 1.1623666994053083e-01 -2.6442829770618292e-02 5.7719164053919747e-02  -2.4304125146908626e-01 -1.5672857262324941e-02 1.0181792053141801e-01 -1.5672857262324941e-02 4.0717731900764953e-01 -1.6404369522628727e-02 1.0181792053141801e-01 -1.6404369522628727e-02 6.3376121651352771e-02  -2.2171502268837254e-01 8.6186249925643953e-03 1.3364372264866090e-01 8.6186249925643953e-03 3.8301906667361368e-01 -4.3661109948209258e-02 1.3364372264866090e-01 -4.3661109948209258e-02 5.9698066271515665e-02  -1.7519225641440395e-01 3.6810780886868982e-02 1.7319158094686610e-01 3.6810780886868982e-02 3.7589584762683131e-01 -5.8581857200224012e-02 1.7319158094686610e-01 -5.8581857200224012e-02 2.6197643824011331e-02  -1.5428127777134512e-01 -1.3744102629271077e-01 1.8432244953873700e-01 -1.3744102629271077e-01 3.1066769873146849e-01 -1.5264522136653549e-02 1.8432244953873708e-01 -1.5264522136653549e-02 6.1777422589117073e-02  1.6510546082471080e-02 -2.7907998592639022e-01 1.4663177288638599e-01 -2.7907998592639022e-01 1.2107681010607456e-01 5.8997210931034154e-02 1.4663177288638599e-01 5.8997210931034154e-02 8.1973580449918315e-02  2.2044880269508416e-01 -2.2103528781994097e-01 1.1161641406781675e-01 -2.2103528781994097e-01 -1.1089994526015139e-01 1.1809373940619390e-01 1.1161641406781674e-01 1.1809373940619390e-01 1.0720617292477289e-01  3.0703652410988053e-01 -5.2433841357442827e-02 6.8748756420270493e-02 -5.2433841357442827e-02 -1.9899119225845688e-01 1.7091140068870853e-01 6.8748756420270493e-02 1.7091140068870853e-01 1.1144744379701002e-01  2.7646445763799571e-01 1.2263291112207916e-01 -8.5119480795987981e-03 1.2263291112207922e-01 -1.4924539882389687e-01 2.0496517321848015e-01 -8.5119480795987964e-03 2.0496517321848010e-01 9.6801840875671313e-02  1.3392471609933093e-01 2.3605240817459147e-01 -7.5468299694447849e-02 2.3605240817459147e-01 1.3837775275350491e-02 1.9311014127155035e-01 -7.5468299694447849e-02 1.9311014127155035e-01 7.1267044937576587e-02  -3.3757665970614116e-02 2.1678782005102354e-01 -1.3487986600031468e-01 2.1678782005102351e-01 2.0945834099864055e-01 1.5987165186061114e-01 -1.3487986600031468e-01 1.5987165186061114e-01 4.5624234746863945e-02  -2.0436676874486429e-01 -1.8630435104819463e-02 1.5254000737330042e-01 -1.8630435104819470e-02 1.6845706890654413e-01 1.5000808951781134e-02 1.5254000737330042e-01 1.5000808951781137e-02 1.9706039263543021e-01  -2.1045532944001127e-01 -4.0584159010888590e-02 1.3556248362835754e-01 -4.0584159010888583e-02 2.6224637773806547e-01 1.0210871399800162e-02 1.3556248362835752e-01 1.0210871399800160e-02 1.2577321542349118e-01  -2.3956427801091021e-01 -4.0129180636170193e-02 1.1890679045562115e-01 -4.0129180636170193e-02 2.7396751135475361e-01 3.1339457428615707e-02 1.1890679045562115e-01 3.1339457428615707e-02 1.6694887101227537e-01  -2.7881737307085075e-01 -1.6370806562118145e-02 2.4330888688369138e-02 -1.6370806562118138e-02 3.0507451695952498e-01 5.6912731420812601e-02 2.4330888688369145e-02 5.6912731420812608e-02 1.9117968142317829e-01  -2.7419443776190239e-01 5.2420641566746978e-03 -4.9267067063441528e-02 5.2420641566746978e-03 3.3792604986475555e-01 9.3775144692064882e-02 -4.9267067063441534e-02 9.3775144692064868e-02 1.6097785484513261e-01  -2.5484303640382278e-01 -2.1996357394138650e-02 -6.8097582082217251e-02 -2.1996357394138653e-02 3.7570165457675642e-01 1.1047941667987292e-01 -6.8097582082217251e-02 1.1047941667987292e-01 1.0107792429807978e-01  -2.6384459806064531e-01 -1.3042349115764837e-02 -5.0024975312030637e-02 -1.3042349115764844e-02 3.7337653354531075e-01 1.2412709604217721e-01 -5.0024975312030637e-02 1.2412709604217721e-01 1.1436349588200669e-01  -2.6624470520729815e-01 4.6930212354206254e-02 -6.6773405164732194e-02 4.6930212354206254e-02 3.5138646742981344e-01 1.0864336276958135e-01 -6.6773405164732194e-02 1.0864336276958134e-01 1.4445841093969075e-01  -2.1165934350997334e-01 6.5771101456475273e-02 -1.4417100781479983e-01 6.5771101456475273e-02 3.4264389983849314e-01 1.1217238437254329e-01 -1.4417100781479983e-01 1.1217238437254330e-01 1.0132691575366526e-01  -9.1984885727001045e-02 -1.7139203376433374e-03 2.6334447601493277e-01 -1.7139203376433333e-03 1.4335893690859513e-02 -6.5217964874041481e-02 2.6334447601493277e-01 -6.5217964874041481e-02 2.7043421678897844e-01  -8.1109010075884239e-02 3.1863840452795035e-02 2.2404415082656523e-01 3.1863840452795042e-02 -1.3351417134391864e-03 -1.4113826152010045e-01 2.2404415082656523e-01 -1.4113826152010045e-01 2.7400213375652721e-01  -5.9478955768221313e-02 5.8978391502910649e-02 1.8761972475591276e-01 5.8978391502910649e-02 -3.0736784133547832e-02 -1.8696140790952839e-01 1.8761972475591276e-01 -1.8696140790952839e-01 2.8554919372299536e-01  -1.8571651371735744e-02 4.7114050871227282e-02 1.1257675282971553e-01 4.7114050871227268e-02 -6.9748224701296144e-02 -2.3209463889263979e-01 1.1257675282971553e-01 -2.3209463889263984e-01 2.8940947139371420e-01  4.0755385790828847e-04 3.2001708846962490e-02 6.9303405936181076e-02 3.2001708846962490e-02 -9.2951074345341778e-02 -2.5558542209373109e-01 6.9303405936181076e-02 -2.5558542209373109e-01 2.9924606393072883e-01  4.5320602073328211e-03 4.2226398091841878e-03 -2.5217173375427667e-02 4.2226398091841878e-03 -9.9353844628289806e-02 -2.6658713523351019e-01 -2.5217173375427660e-02 -2.6658713523351019e-01 3.0985331548005346e-01  1.1724366292718270e-02 -1.8512036494379831e-02 -8.8368155681356961e-02 -1.8512036494379831e-02 -8.1783198257153411e-02 -2.6310624788523529e-01 -8.8368155681356961e-02 -2.6310624788523529e-01 2.6689731651083731e-01  -1.9796757635299218e-02 -5.2646836346687452e-02 -2.0313000741365633e-01 -5.2646836346687452e-02 -5.3443019246959919e-02 -1.9148669854664332e-01 -2.0313000741365633e-01 -1.9148669854664332e-01 2.9201067035547967e-01  -7.2788665721818635e-02 -4.3614792322824086e-02 -2.6195179123209772e-01 -4.3614792322824086e-02 -2.4434125164562309e-02 -1.1131693505717137e-01 -2.6195179123209772e-01 -1.1131693505717137e-01 3.2197165725394278e-01  8.4053875172739129e-02 3.6159556405701669e-02 3.1222852715456727e-02 3.6159556405701662e-02 -8.6812334682612416e-02 7.8188829978263735e-02 3.1222852715456727e-02 7.8188829978263708e-02 3.5777163798694042e-02  7.0813703432952235e-02 7.6657230368156609e-02 1.4850935287750000e-02 7.6657230368156609e-02 -6.4483138619394115e-02 8.3816516850318226e-02 1.4850935287750000e-02 8.3816516850318226e-02 2.9792106924649269e-02  1.5140755056376489e-02 8.9000065628536448e-02 -1.4829663835583651e-02 8.9000065628536448e-02 -2.0980769327882690e-02 8.7695576078765103e-02 -1.4829663835583651e-02 8.7695576078765103e-02 3.8561018614224063e-02  -2.2770056743689551e-02 9.7250053565395220e-02 -4.7936846795294349e-02 9.7250053565395220e-02 5.2096433082943532e-02 7.8790833797355964e-02 -4.7936846795294349e-02 7.8790833797355964e-02 9.5896458714900563e-03  -6.3137976259700468e-02 6.2873749978011997e-02 -6.7033006881470555e-02 6.2873749978011984e-02 9.7418228416673219e-02 7.0998627529132538e-02 -6.7033006881470555e-02 7.0998627529132538e-02 5.2860172308056060e-03  -8.9072380394876693e-02 2.1468172547847459e-02 -7.9396029473880567e-02 2.1468172547847466e-02 1.0755589256252081e-01 4.9157921248922196e-02 -7.9396029473880567e-02 4.9157921248922196e-02 2.0688891156687487e-02  -8.0532367498743929e-02 -2.3664253455012819e-02 -9.8955033354989980e-02 -2.3664253455012819e-02 1.0911458000027348e-01 3.1188968617623488e-02 -9.8955033354989980e-02 3.1188968617623488e-02 1.6053921949083384e-02  -4.5571250981196555e-02 -8.0056188892899005e-02 -8.5212321885447403e-02 -8.0056188892899019e-02 8.0684234725026463e-02 1.0055306982380283e-03 -8.5212321885447390e-02 1.0055306982380274e-03 -4.1290480751066282e-05  1.0011496723584553e-02 -1.0650578553236563e-01 -8.9870891948136938e-02 -1.0650578553236563e-01 6.3925047179984188e-03 5.2113694582558122e-03 -8.9870891948136952e-02 5.2113694582558105e-03 1.8585556439609088e-02  5.2675031985996205e-02 -4.7534133221096328e-02 -8.1461664712102047e-02 -4.7534133221096328e-02 -7.7444233946591917e-02 -2.9679475100357421e-02 -8.1461664712102061e-02 -2.9679475100357400e-02 4.6260644059071002e-02  1.2909555880165610e-01 -6.8192007457338943e-02 -6.2020089736761944e-02 -6.8192007457338971e-02 -1.1335420482840400e-01 -4.5214495283647786e-02 -6.2020089736761944e-02 -4.5214495283647765e-02 2.9330997920921295e-02  2.0857977108717138e-01 -4.3560976867104848e-02 -7.4448657668971990e-02 -4.3560976867104889e-02 -1.7430298645209161e-01 -1.0251756581048403e-01 -7.4448657668971990e-02 -1.0251756581048403e-01 8.0937320319556860e-02  2.0423915967833511e-01 -3.2463038681457820e-02 -6.6400778790860496e-02 -3.2463038681457827e-02 -1.0617776105060479e-01 -1.5903657409684571e-01 -6.6400778790860496e-02 -1.5903657409684571e-01 2.3571527426527104e-02  1.7353758251581936e-01 -8.6156598920918443e-03 -3.6513168892592193e-02 -8.6156598920918460e-03 -8.0774256992274987e-02 -1.3621308900991222e-01 -3.6513168892592193e-02 -1.3621308900991222e-01 -1.6118731245043739e-02  1.4852714759425381e-01 -1.6521461411497964e-03 -2.9088902026950206e-02 -1.6521461411497964e-03 -1.1870569441055211e-01 -9.2534192549492106e-02 -2.9088902026950206e-02 -9.2534192549492106e-02 2.4034623199406517e-02  1.2480139799762767e-01 -3.2286016935668675e-02 -4.9215086553190075e-02 -3.2286016935668675e-02 -1.5534828025491457e-01 -5.8670475774206816e-02 -4.9215086553190075e-02 -5.8670475774206816e-02 9.4907464959109678e-02  9.6619707882898212e-02 -3.4540624838094620e-02 -3.9460962171072284e-02 -3.4540624838094627e-02 -1.5215325157251719e-01 -2.7867710907409911e-02 -3.9460962171072284e-02 -2.7867710907409911e-02 1.0715076647857849e-01  6.5510016292448611e-02 -5.0830922087954748e-02 -6.9547667252072088e-03 -5.0830922087954741e-02 -1.0890192768185274e-01 4.0954900609806687e-02 -6.9547667252072088e-03 4.0954900609806673e-02 7.0561423408939825e-02  5.1049171391137467e-02 -7.5297365243128259e-02 -2.8856018922086623e-04 -7.5297365243128259e-02 -8.7713766297430149e-02 1.1914162010597931e-01 -2.8856018922086612e-04 1.1914162010597931e-01 9.4088835277497243e-02  4.7505178835127580e-02 -6.2800978475004349e-02 -1.1213788150289030e-02 -6.2800978475004349e-02 -1.0243514087264613e-01 1.5677164130873184e-01 -1.1213788150289028e-02 1.5677164130873184e-01 1.4089030525371310e-01  7.8372974885887042e-03 9.2168944112890495e-03 -1.4509496109809030e-02 9.2168944112890495e-03 -2.2983905579058658e-02 1.7429745856298978e-01 -1.4509496109809030e-02 1.7429745856298978e-01 6.1740768966391579e-02  1.2508527882623820e-02 3.0939435245626087e-03 1.0420971793366603e-02 3.0939435245626091e-03 -2.4960300401089854e-02 1.5996796480569572e-01 1.0420971793366603e-02 1.5996796480569572e-01 4.7768578322736704e-02  1.7471034299625186e-02 -8.6312095339832976e-03 4.2960753002456720e-02 -8.6312095339832976e-03 -2.9283684034319982e-02 1.5332997500607629e-01 4.2960753002456720e-02 1.5332997500607629e-01 4.7680202449955800e-02  2.3274628747068794e-02 -2.1392606717756932e-02 6.3557283862302014e-02 -2.1392606717756932e-02 -2.0116540003841620e-02 1.3716585206816398e-01 6.3557283862302014e-02 1.3716585206816392e-01 3.1938780948005778e-02  1.7789567506722757e-02 -1.7564286384136492e-02 8.8469402619436116e-02 -1.7564286384136492e-02 -1.7288698508117092e-02 1.1972833436691525e-01 8.8469402619436116e-02 1.1972833436691525e-01 2.8723084722463609e-02  4.6106269537962277e-02 -1.1975869670772885e-02 8.0114912251232226e-02 -1.1975869670772885e-02 3.8601261215487072e-04 8.9827181297229622e-02 8.0114912251232212e-02 8.9827181297229594e-02 -3.1228123069213992e-02  5.0719349035569100e-02 -1.9519159076609463e-02 9.4457802993497403e-02 -1.9519159076609463e-02 6.3566778491230755e-03 5.2579832185043744e-02 9.4457802993497403e-02 5.2579832185043758e-02 -4.1810621146207642e-02  2.1010149560033102e-02 -3.7855924456636637e-02 1.2442534751590324e-01 -3.7855924456636637e-02 2.0314390266818225e-02 3.9281227803618160e-02 1.2442534751590324e-01 3.9281227803618160e-02 -1.1335258016657397e-02  2.8357730755349558e-02 -4.0795203478296779e-02 1.1299752641363213e-01 -4.0795203478296786e-02 4.2228342682525837e-02 3.4772171982635951e-03 1.1299752641363214e-01 3.4772171982635977e-03 -4.7728046099011295e-02  1.4022943897531108e-02 -4.2425000268406288e-02 1.1365500129136119e-01 -4.2425000268406302e-02 6.0791814144176982e-02 -1.4550177698838969e-02 1.1365500129136119e-01 -1.4550177698838972e-02 -5.1211855056572074e-02  -1.4726244908354801e-02 -2.5600391601188544e-02 1.0464342089330474e-01 -2.5600391601188550e-02 7.2055962167463752e-02 -4.5503173884851526e-02 1.0464342089330476e-01 -4.5503173884851519e-02 -3.3301472215273922e-02  -2.4599969975559646e-02 5.2946104860689567e-03 1.0186186866230926e-01 5.2946104860689567e-03 5.9235554429805659e-02 -6.3312268030875238e-02 1.0186186866230926e-01 -6.3312268030875238e-02 -5.8294842976204251e-03  6.3191899498078420e-03 8.5084708892989910e-03 6.6305592341497688e-02 8.5084708892989910e-03 6.8635567078014131e-02 -7.0669674450569250e-02 6.6305592341497702e-02 -7.0669674450569250e-02 -5.6400700902171481e-02  1.2379410564964851e-02 -3.4063656441472259e-02 -8.5504719565282390e-03 -3.4063656441472259e-02 8.6603370444154851e-02 -9.2023636964938704e-02 -8.5504719565282408e-03 -9.2023636964938704e-02 -8.4933038763883126e-02  -1.7874426505054997e-02 2.6944395307827659e-02 4.6834325054447491e-02 2.6944395307827659e-02 4.9933764218118258e-02 -8.8476439831606496e-02 4.6834325054447491e-02 -8.8476439831606496e-02 -1.0874417206258619e-02  8.9729347101995496e-02 -4.3879166109087854e-02 4.1272669967983587e-02 -4.3879166109087854e-02 -1.0847845662109126e-01 4.0273383709744121e-02 4.1272669967983608e-02 4.0273383709744121e-02 5.3091224561470217e-02  8.7688740752145805e-02 -4.5545431447793584e-02 5.3377139254971444e-02 -4.5545431447793584e-02 -1.1846814342166598e-01 5.1593963156404679e-03 5.3377139254971444e-02 5.1593963156404679e-03 6.3592924604453524e-02  1.0930983480782405e-01 -7.1121341408238989e-02 5.5941969665739971e-02 -7.1121341408238989e-02 -1.4340925586360395e-01 -3.9760066660821545e-03 5.5941969665739971e-02 -3.9760066660821580e-03 9.0342893067329566e-02  1.4059846474871981e-01 -7.2543172118499769e-02 6.1091302320966691e-02 -7.2543172118499769e-02 -1.6718891102814870e-01 1.7534613744034405e-02 6.1091302320966691e-02 1.7534613744034405e-02 1.0765692233633919e-01  1.2884987276939860e-01 -6.1255817725005310e-02 5.9322547893492769e-02 -6.1255817725005317e-02 -1.6301200462984247e-01 3.1279890182874567e-02 5.9322547893492769e-02 3.1279890182874567e-02 1.0942108993094643e-01  1.1677128590141402e-01 -4.7898007799388388e-02 4.6550434104218996e-02 -4.7898007799388388e-02 -1.6434781134230250e-01 2.4283879861502117e-02 4.6550434104218996e-02 2.4283879861502117e-02 1.1450015094492627e-01  8.9698288501979043e-02 -3.9459442052913352e-02 3.7346864199728033e-02 -3.9459442052913352e-02 -1.5801025222753637e-01 1.1409848076159017e-02 3.7346864199728033e-02 1.1409848076159017e-02 1.2620360203922062e-01  6.0966005481239274e-02 -3.7072484588569120e-02 6.6368239753512095e-02 -3.7072484588569120e-02 -1.4081724398774231e-01 -9.0514229171382004e-03 6.6368239753512095e-02 -9.0514229171381987e-03 1.2595589758375808e-01  4.6562219286501866e-02 -2.3433073797580781e-02 7.2196929819353425e-02 -2.3433073797580781e-02 -5.6225797809845712e-02 -7.2003405086073502e-03 7.2196929819353425e-02 -7.2003405086073485e-03 1.5775080277133494e-02  1.5596591521136005e-01 5.3303984669664441e-02 -3.5157583478427797e-02 5.3303984669664441e-02 -1.3896405641812218e-01 -7.4790943281030114e-02 -3.5157583478427804e-02 -7.4790943281030114e-02 4.1872669736396251e-02  1.2793520894830115e-01 1.3533855275439219e-01 -1.3003780354142846e-02 1.3533855275439219e-01 -1.0066348346971341e-01 -8.1263561069105691e-02 -1.3003780354142846e-02 -8.1263561069105691e-02 4.3459420293184343e-02  4.0158603875731357e-02 1.6043193714664170e-01 1.4551389606047545e-02 1.6043193714664170e-01 -3.8007146423226591e-02 -7.7870725801405943e-02 1.4551389606047552e-02 -7.7870725801405943e-02 6.4130175127550745e-02  -5.3136490437766144e-02 1.5739433570590580e-01 3.2273828508052306e-02 1.5739433570590580e-01 5.7613251861767398e-02 -7.4403701119668764e-02 3.2273828508052306e-02 -7.4403701119668764e-02 6.3007145670513520e-02  -1.1165612474342221e-01 9.7597360854717111e-02 5.1323907516010230e-02 9.7597360854717111e-02 9.1611732003369625e-02 -7.0589013712554563e-02 5.1323907516010230e-02 -7.0589013712554563e-02 7.7614087632440890e-02  -1.2509472404832062e-01 3.6170334848364939e-02 7.3543282289675008e-02 3.6170334848364939e-02 1.2326574201491981e-01 -5.1671734771256590e-02 7.3543282289675008e-02 -5.1671734771256590e-02 5.5228407578017606e-02  -9.9908600579581161e-02 -3.7534930424811860e-02 8.8490374011325409e-02 -3.7534930424811860e-02 1.0140441235577800e-01 -3.0111575059384072e-02 8.8490374011325409e-02 -3.0111575059384072e-02 3.9199843544036855e-02  -9.4338586937621080e-02 -5.7233201015901479e-02 7.5055978479713181e-02 -5.7233201015901493e-02 7.1680667264551232e-02 -2.4332387079018001e-02 7.50559