<?xml version="1.0"?>
<VTKFile type="UnstructuredGrid"  version="0.1"  >
<UnstructuredGrid>
<Piece  NumberOfPoints="1268" NumberOfCells="4847">
<Points>
<DataArray  type="Float64"  NumberOfComponents="3"  format="ascii">1.994716987487452 0.01317707561264319 -1.202466945460223e-11  1.374072606111497 -0.08614134488653273 -5.388997575085332  -1.285941478930618 0.1916557790035214 -5.691288663606836  -1.59032616235459 -0.4515196446136259 1.626303258728257e-17  0.4950030257755884 2.521650519233041 -5.495391852657774  -0.4107718940653654 -2.429115409112172 -5.58531208084276  -0.9314707163843408 -3.006923447963563 4.87890977618477e-17  1.161824811771535 2.948440156756841 -3.391384395534658e-14  2.146749234505421 0.002696741478414759 -0.5615078450779066  2.330988047973839 -0.000873250973709995 -1.113141311680313  2.540713632977715 -0.1384292375506191 -1.637427654548237  2.645241452520652 -0.2872312815961211 -2.18637082393926  2.504842461151312 -0.2752146673621067 -2.746850782899552  2.287876352721185 -0.2088259978706829 -3.283011632728322  2.137771360922677 -0.2093380261300688 -3.844996501809416  1.970142554575494 -0.2193701374385486 -4.401638277082749  1.701580801829277 -0.1696632515169769 -4.915066532844666  1.398049690886424 0.4419377546899956 -5.387643705321969  1.183972204621215 0.9208338616597355 -5.413149504812257  0.7621482426349403 1.234356207118232 -5.461782499987256  0.2539805730796886 1.370727420898931 -5.519751404145364  -0.2689415860383004 1.319053689498898 -5.578906487138381  -0.7357170559581984 1.076180709179107 -5.631191713357971  -1.086003096318238 0.6812820615514149 -5.669884670156524  -1.65706961757681 -0.5275128747266272 -0.6240725009925172  -1.829082870387909 -0.8347372240299333 -1.153553189134448  -2.030635262011336 -1.097965926806997 -1.693320688638939  -2.148557703924963 -0.9683820133813712 -2.295450526931833  -2.119047321408695 -0.7521727279271558 -2.890676896601294  -1.972500555455803 -0.7106310836492745 -3.509380855831461  -1.885028119342598 -0.4902108162504233 -4.093718100793141  -1.832050776792238 -0.1313823297003599 -4.617858136599065  -1.636180550340053 0.1151199882480144 -5.165527944859976  -1.540434086810702 0.1014447694855235 -7.644826989049428e-17  -1.339902801239663 0.6191128040412099 2.218327606354497e-17  -0.9949589579071262 1.053322092476122 2.12059320661159e-17  -0.5243975458638882 1.346285776146202 7.754217898549941e-16  0.01399251627036286 1.481823287560149 3.252316763596149e-17  0.5696211504784076 1.47677978548424 -7.207855520904863e-17  1.105448032340458 1.331487337928338 1.951563910473908e-16  1.561367740818086 1.018090979386763 -2.179459114756194e-16  1.860006992193919 0.551530302300456 1.369433074745588e-16  -0.152869286718376 2.506583809965366 -5.568804938302105  -0.7781210310064858 2.335338381675429 -5.639249366957451  -1.340550096787874 2.011723800088065 -5.702178028336585  -1.803922993566052 1.555830170950866 -5.753534898075912  -2.144678763029901 1.000979069722826 -5.790734833138769  -2.346903237737564 0.3811866585909049 -5.812061421922149  -2.406990243842066 -0.2684488461825228 -5.817196438260218  -2.318433628103212 -0.9144163570965761 -5.805488779558074  -2.059391262210163 -1.511004864267824 -5.774580158166454  -1.615755841275718 -1.983465489741105 -5.72306417450185  -1.043145925381342 -2.287058241276404 -5.657361969815248  -0.6986882361605687 -2.420627649803484 -5.024556445072709  -0.8272574030199392 -2.685291244074475 -4.476216325063944  -0.8113210073272845 -3.118860027310894 -4.01596683617901  -0.7618552434953355 -3.481598098596065 -3.504026669625047  -0.7509882165597778 -3.609083979854663 -2.886473298216772  -0.7986167670519319 -3.732483084086931 -2.268445488219849  -0.8276969497603353 -3.810997815301134 -1.64593496945388  -0.7425506523451623 -3.557242155569485 -1.078322423839125  -0.7147449622328144 -3.21189056194362 -0.5511080601316157  -1.482234509376526 -2.778582553401298 -5.854479658363816e-16  -1.970737176894139 -2.437284655419533 2.764697292186607e-16  -2.362818572203899 -1.988727212877528 2.439101268600111e-16  -2.642390785384022 -1.462244173776716 5.051059276813266e-16  -2.812149102113852 -0.89052423419162 2.276851973687203e-16  -2.877946727920729 -0.2976446157883296 -1.219909928720168e-16  -2.842947107925845 0.2978601752284433 4.065446096494693e-17  -2.70313036896374 0.8776122116387211 -5.041496169361013e-16  -2.452324348076021 1.418519584933707 4.379274460317988e-16  -2.098265626135573 1.898294456130726 1.951060033519619e-16  -1.658391347368763 2.301023318502569 -1.789574489620802e-16  -1.154148079923361 2.619757341302747 -2.081203863085907e-15  -0.6042202207747882 2.851073703499478 -3.577841418755692e-16  -0.02416138323675775 2.990516581461941 4.065982498622179e-16  0.5710641261211448 3.028216945076794 -1.46882551317968e-16  0.6414151130412097 2.696325287154043 -4.983333021490838  0.771852374565919 2.778456367279237 -4.445188759107248  0.8805845204306011 2.73078881179073 -3.897720120696569  0.9481597620953167 2.69798349057175 -3.343104559074628  0.9815370707090804 2.778214865778854 -2.789250505759619  1.013475345489448 2.861817704396183 -2.235671116027784  1.055849759321274 2.898356228459238 -1.677594140621302  1.093646323460014 2.92793989028903 -1.118725590781912  1.124098871622056 2.957526991478201 -0.5594169689370629  0.2477015793419729 -2.415655802610486 -5.510682951113449  0.8844491790088972 -2.245867158009595 -5.438931443942415  1.464891069119211 -1.932330028996181 -5.373934600293736  1.955087092649627 -1.489613175355717 -5.319502697776375  2.318355026965356 -0.937054784961175 -5.279744576064058  2.524994411863564 -0.307899182343253 -5.257941630215678  2.574632820450045 0.3531084349228537 -5.254020561031156  2.465743861849647 1.006614152640354 -5.268052816559671  2.183897076015212 1.604484044160622 -5.301550147358176  1.722560240631265 2.07491696755195 -5.35506775502591  1.13806318635062 2.378906583716481 -5.422118662603529  1.742182153284979 2.73179858498085 5.854691697147836e-16  2.262480931380501 2.395264875892136 -2.601681534737615e-16  2.698000706832733 1.954727370266727 -3.903113804560263e-16  3.021530388777258 1.426473918441798 1.707421408502106e-16  3.223363606607101 0.8405687193648443 -2.844806418042028e-16  3.305434793487241 0.2261994274297442 -4.472186606099012e-16  3.269241566985055 -0.3926051469820059 3.171555149681837e-16  3.113478077610213 -0.9924495549400153 3.510830505762065e-16  2.840400132149515 -1.548806515270482 -1.707368614952523e-16  2.466120284856568 -2.042983582774378 9.732831365154574e-17  2.008125599488538 -2.460814027017948 -3.577575055983979e-16  1.482521285196868 -2.789563899556613 -4.886146623064541e-17  0.9057866143556688 -3.01678997208197 -2.439392613813594e-16  0.2964958724913082 -3.130681163554852 3.414395345104792e-16  -0.32338307292875 -3.126978161260848 2.926910878106614e-16  -1.29067345658392 -0.3506098753383553 -5.690421630247788  -1.068897680254163 -0.8451623229646739 -5.663999894259847  -0.6782440885714781 -1.219621806060448 -5.6187489875115  -0.168757542531344 -1.390394566692369 -5.560546895724229  0.3611301401510615 -1.294122251639114 -5.500717901478111  0.8191548613516448 -1.005201308695582 -5.449538098373106  1.16817203978903 -0.5892762115769014 -5.411042670828763  1.960898302630318 -0.551652302616722 -8.131516293641286e-17  1.751009740180289 -1.077278642631261 7.445724005953314e-16  1.394016468000002 -1.516729095803803 1.136104663605282e-15  0.9227767039454898 -1.830301465573364 3.434443593283319e-16  0.3780412068884804 -1.984007749105097 8.617772484356591e-16  -0.1885780664025548 -1.977994130030172 2.357202029695971e-16  -0.7327557451871473 -1.821291124380143 1.942410916395698e-17  -1.191068596016128 -1.491774666596192 2.975009434367945e-16  -1.480405544894888 -1.006855825633415 6.954512630084263e-16  -1.812414118534285 0.2561131097252937 -2.664867827914479  2.421751940242729 0.6298287624476981 -1.933377861698098  0.7556418177061754 1.42269463362527 -4.617654324361507  0.003134751711410342 1.574821943356493 -0.9318675177876981  1.015098001669947 1.51699057942374 -0.9441494884276413  0.6193243625380082 1.764115149411371 -1.862230514405671  -0.4757031201037318 1.549728101933577 -1.958273018773558  0.1126459993007786 1.698838152590054 -2.957602797129454  -0.3405660022430232 1.569615851499001 -4.678135257405353  1.818199099779932 0.7365610114574719 -3.763003518505052  -0.9541815370276669 1.23451227632913 -2.875526912859068  -1.269464226480212 1.016489154450913 -4.672047638709048  1.301562892980348 1.557566760682666 -2.802482532053872  -0.7813756340336595 1.414221906310649 -3.725761628685261  -1.58370798409762 0.5643609111372817 -3.581008460136619  -0.988817348255397 1.158392548936659 -1.014254585170146  -1.607700527190565 0.2800106654898483 -1.030081240453645  -1.388203055800784 0.7951310659851955 -1.943712885648593  0.8261955720421881 1.570157055202129 -3.620947225245673  1.681455131778566 1.410849015379531 -1.876189895849114  1.878739160554727 0.943024132521903 -0.9866418074548234  2.103426639579445 1.000735947836943 -2.593434794762663  1.62623803052506 0.6468498306152269 -4.727220189271843  -1.882943490361709 -0.1546739965127431 -1.761716647663214  0.05868355051519467 1.656538949473053 -3.863342338366238  2.465845305360337 0.2632819454094029 -2.663569745038379  1.994842599423799 0.5019775153043848 -0.4779055074204815  2.1671824130763 0.4980244878585698 -1.027636182799239  1.710213566460811 0.9718796190568162 -0.4957578884333736  1.845584590132108 0.2253887364997403 -4.583879812097906  1.579035044615276 0.2924902970866011 -5.101748935835201  1.409777182251665 0.7868327264427526 -5.07202467441607  -1.039178737375989 1.089168173550246 -5.170746090958521  -1.377687418630729 0.6683636420802941 -5.233117919580046  -1.641402128985454 0.4875654733502939 -4.648722230221863  -1.765467255797776 -0.2695484060062747 -1.079683539430899  -1.617858736076732 -0.08318463488274264 -0.5123563299218489  -1.474019211051276 0.4496529111656123 -0.5150171376928306  2.417677350191343 0.3274903893149403 -1.506992657970159 
[...]
<PointData  Tensors="strain"> 
<DataArray  type="Float64"  Name="strain"  NumberOfComponents="9" format="ascii">-4.6852243978709435e-02 -9.9839623172483447e-03 -2.7813373747425990e-01 -9.9839623172483447e-03 1.0710414126046119e-02 -3.5214598293543987e-02 -2.7813373747425990e-01 -3.5214598293543987e-02 2.1106560286145445e-01  -1.8274137303747334e-01 4.7867883171148415e-02 1.4508699106332812e-01 4.7867883171148415e-02 3.6671472508800246e-01 -8.2128487360039998e-02 1.4508699106332815e-01 -8.2128487360039998e-02 2.1098248651520376e-02  -1.4276093214338467e-01 7.4500439176970759e-02 -1.7320492712495575e-01 7.4500439176970745e-02 3.4765558742374264e-01 9.2119705462275214e-02 -1.7320492712495578e-01 9.2119705462275228e-02 5.6401498100831374e-03  -6.6281284647212890e-02 -3.6902933991328810e-02 2.5910816565373423e-01 -3.6902933991328823e-02 3.2589673216276011e-03 -3.1542287389663706e-02 2.5910816565373423e-01 -3.1542287389663699e-02 2.3681720591407346e-01  9.3049516572695848e-02 -1.0007180649057906e-02 5.6792056311662273e-02 -1.0007180649057906e-02 -9.0545440981303835e-02 5.4552268467446020e-02 5.6792056311662273e-02 5.4552268467446020e-02 2.7102081371144945e-02  1.6633925880758410e-01 -6.9293609345907458e-03 -5.2358408074632601e-02 -6.9293609345907449e-03 -1.4637086485912260e-01 -3.7087822206420956e-02 -5.2358408074632608e-02 -3.7087822206420956e-02 3.1451265382323131e-02  1.6035256293381553e-03 1.3884857067373097e-02 -4.9991721762626028e-02 1.3884857067373097e-02 -1.8563347968775529e-02 1.7379374983231363e-01 -4.9991721762626028e-02 1.7379374983231363e-01 7.2119973441274104e-02  6.2892372218485591e-03 2.8995792472832783e-02 5.7545264351448085e-02 2.8995792472832783e-02 4.6391835242217981e-02 -7.8814585527442069e-02 5.7545264351448085e-02 -7.8814585527442069e-02 -3.5290086990432637e-02  -1.8659831857808951e-01 -4.2604068095561103e-02 -1.5527681552593922e-01 -4.2604068095561103e-02 1.8368794091374549e-01 -8.0653616924810434e-02 -1.5527681552593922e-01 -8.0653616924810434e-02 1.6609962254069660e-01  -2.1662497461895291e-01 -5.7187405662366721e-02 -1.2445064101441945e-01 -5.7187405662366721e-02 2.6043323526627854e-01 -6.4446007139520714e-02 -1.2445064101441945e-01 -6.4446007139520714e-02 1.3970248088586976e-01  -2.4827284865533836e-01 -1.0213936241966978e-02 -1.0776866586159053e-01 -1.0213936241966979e-02 2.8585239681918878e-01 -3.5600676013416752e-02 -1.0776866586159053e-01 -3.5600676013416759e-02 1.6034005875042190e-01  -2.7179754537113265e-01 2.6809256364904794e-02 1.8291655435101794e-03 2.6809256364904794e-02 2.7439556836186629e-01 -5.5892961092202077e-02 1.8291655435101807e-03 -5.5892961092202077e-02 2.0326686406498479e-01  -2.3260117619341178e-01 -4.3362519694414960e-03 1.2590637426237825e-01 -4.3362519694415021e-03 3.3084470618226930e-01 -7.2352500906508924e-02 1.2590637426237825e-01 -7.2352500906508924e-02 1.1399746898731153e-01  -2.2335486850551003e-01 -4.5956287883545520e-02 1.1161485448034257e-01 -4.5956287883545541e-02 3.8002667230336357e-01 -2.5916995818064052e-02 1.1161485448034257e-01 -2.5916995818064052e-02 5.1892757742224002e-02  -2.3685515821067496e-01 -1.5883632958684044e-02 9.7965996177478962e-02 -1.5883632958684044e-02 3.9109526135551642e-01 -1.6111613383930357e-02 9.7965996177478962e-02 -1.6111613383930357e-02 5.7276440559963102e-02  -2.1651802404950329e-01 7.3864879832872118e-03 1.2854900772460887e-01 7.3864879832872135e-03 3.6838853815611150e-01 -4.2668444859351291e-02 1.2854900772460892e-01 -4.2668444859351291e-02 5.3806019013945973e-02  -1.7183739288796354e-01 3.4439263299426391e-02 1.6727100995890432e-01 3.4439263299426391e-02 3.6046603805893324e-01 -5.7000954862099676e-02 1.6727100995890432e-01 -5.7000954862099676e-02 2.2577111857405203e-02  -1.5091115371062017e-01 -1.3333786558369062e-01 1.7825335244595045e-01 -1.3333786558369062e-01 2.9656140616474314e-01 -1.5490356034027136e-02 1.7825335244595045e-01 -1.5490356034027132e-02 5.6888785533111552e-02  1.3883213530089707e-02 -2.6951768124668646e-01 1.4198473990817340e-01 -2.6951768124668651e-01 1.1448859503444554e-01 5.6205525866487333e-02 1.4198473990817334e-01 5.6205525866487333e-02 7.5384694196023547e-02  2.1046906075526767e-01 -2.1277358114698339e-01 1.0830514730209129e-01 -2.1277358114698339e-01 -1.0981863252893286e-01 1.1272394287676145e-01 1.0830514730209129e-01 1.1272394287676145e-01 9.9347352590323554e-02  2.9348658664907540e-01 -4.9812317357383916e-02 6.7093281649402550e-02 -4.9812317357383930e-02 -1.9460741113085636e-01 1.6440406801091539e-01 6.7093281649402550e-02 1.6440406801091537e-01 1.0391145355043546e-01  2.6398290436115668e-01 1.1847816049377745e-01 -7.5551766504496675e-03 1.1847816049377743e-01 -1.4704166291445236e-01 1.9762074693280279e-01 -7.5551766504496657e-03 1.9762074693280285e-01 9.0502726275270298e-02  1.2561035621443889e-01 2.2757423453709349e-01 -7.1327050377704329e-02 2.2757423453709349e-01 1.1893495680382409e-02 1.8672207286960973e-01 -7.1327050377704329e-02 1.8672207286960973e-01 6.4546849132306086e-02  -3.6926579777482017e-02 2.0855695792183859e-01 -1.2901051363732469e-01 2.0855695792183859e-01 2.0089175868045900e-01 1.5472346075367463e-01 -1.2901051363732469e-01 1.5472346075367463e-01 4.0850590107865251e-02  -2.0049683809435517e-01 -1.6051214518359627e-02 1.4274804902780466e-01 -1.6051214518359627e-02 1.5977550636057050e-01 1.4405490284095950e-02 1.4274804902780466e-01 1.4405490284095948e-02 1.8687699855288073e-01  -2.0581070008256602e-01 -3.7562258600511718e-02 1.2797436879956847e-01 -3.7562258600511718e-02 2.5021985962631049e-01 9.5978596130590343e-03 1.2797436879956850e-01 9.5978596130590309e-03 1.1780636867771614e-01  -2.3421967485470443e-01 -3.8714004631537173e-02 1.1210231752318818e-01 -3.8714004631537173e-02 2.6142710492268306e-01 3.0492700983733668e-02 1.1210231752318818e-01 3.0492700983733675e-02 1.5833082442117427e-01  -2.7145756678540123e-01 -1.7463663152938663e-02 2.2794653420803477e-02 -1.7463663152938663e-02 2.9149265716692480e-01 5.5280463358369801e-02 2.2794653420803487e-02 5.5280463358369815e-02 1.8118420754523024e-01  -2.6696909872958363e-01 3.6698534599194040e-03 -4.7656071576133836e-02 3.6698534599194084e-03 3.2341655231113681e-01 9.1194481724429580e-02 -4.7656071576133836e-02 9.1194481724429580e-02 1.5211447408013401e-01  -2.4784671075655643e-01 -2.2963742842810528e-02 -6.5796851654257374e-02 -2.2963742842810522e-02 3.6005457131897944e-01 1.0693160272134390e-01 -6.5796851654257374e-02 1.0693160272134392e-01 9.4050563297226747e-02  -2.5598053599723425e-01 -1.3957823164854376e-02 -4.9358799353031522e-02 -1.3957823164854369e-02 3.5752905639065491e-01 1.2001997334961698e-01 -4.9358799353031522e-02 1.2001997334961698e-01 1.0643427078580107e-01  -2.5902991103676198e-01 4.4059260080662598e-02 -6.5768190585888925e-02 4.4059260080662598e-02 3.3693430116416229e-01 1.0488116946433253e-01 -6.5768190585888925e-02 1.0488116946433253e-01 1.3552935146808487e-01  -2.0728506312824846e-01 6.2527244344526431e-02 -1.3899537655239169e-01 6.2527244344526431e-02 3.2880512634972769e-01 1.0885520790419313e-01 -1.3899537655239169e-01 1.0885520790419310e-01 9.4329776978244906e-02  -9.3272385391179935e-02 -8.7863926822818572e-04 2.4977824192144196e-01 -8.7863926822818528e-04 1.4103716951251797e-02 -6.4519516776789951e-02 2.4977824192144196e-01 -6.4519516776789951e-02 2.5660123296627280e-01  -8.0628988829502549e-02 3.1782764882820780e-02 2.1217320808353785e-01 3.1782764882820773e-02 -2.2476459270640470e-03 -1.3656011183027725e-01 2.1217320808353785e-01 -1.3656011183027725e-01 2.5867887690159358e-01  -5.9755614206305041e-02 5.9951842488857494e-02 1.7679096096046448e-01 5.9951842488857494e-02 -3.1418844284006049e-02 -1.7890115278083876e-01 1.7679096096046448e-01 -1.7890115278083876e-01 2.7116210869435337e-01  -1.8577902984371251e-02 4.6806791405726404e-02 1.0476373275694434e-01 4.6806791405726404e-02 -6.9159996409614649e-02 -2.2260948651473711e-01 1.0476373275694434e-01 -2.2260948651473711e-01 2.7279564075245627e-01  3.7800100670601366e-04 3.2227576986105247e-02 6.3768884543658783e-02 3.2227576986105247e-02 -9.3744241536820372e-02 -2.4363361622321944e-01 6.3768884543658783e-02 -2.4363361622321944e-01 2.8419146125569261e-01  4.4391230594491354e-03 3.5929927651710894e-03 -2.7107058901604340e-02 3.5929927651710894e-03 -9.9069091041533455e-02 -2.5391445257161321e-01 -2.7107058901604340e-02 -2.5391445257161321e-01 2.9316320109954275e-01  1.1623232659456291e-02 -1.9175316667233960e-02 -8.5921359569644321e-02 -1.9175316667233960e-02 -8.3602809933218350e-02 -2.4899794517966808e-01 -8.5921359569644321e-02 -2.4899794517966808e-01 2.5273799530489427e-01  -2.0066562279981468e-02 -5.2315551361348356e-02 -1.9720478257042326e-01 -5.2315551361348356e-02 -5.2557079330700848e-02 -1.8017779891855795e-01 -1.9720478257042326e-01 -1.8017779891855795e-01 2.7430235088578420e-01  -7.2301309352173757e-02 -4.3415574838425258e-02 -2.5263612197451912e-01 -4.3415574838425258e-02 -2.4308700306849070e-02 -1.0204823902160393e-01 -2.5263612197451912e-01 -1.0204823902160393e-01 3.0395437610197779e-01  7.9948045110030591e-02 3.5108149871864065e-02 3.1541828128992637e-02 3.5108149871864065e-02 -8.2365395929075116e-02 7.4699670146033181e-02 3.1541828128992644e-02 7.4699670146033181e-02 3.2325926898891959e-02  6.8185613432607914e-02 7.3572333349144495e-02 1.6032740657479973e-02 7.3572333349144495e-02 -6.2880324686043543e-02 7.9940511161717492e-02 1.6032740657479973e-02 7.9940511161717492e-02 2.7841225509815253e-02  1.3477999261156086e-02 8.4899665232808619e-02 -1.1924690102381516e-02 8.4899665232808619e-02 -2.0270255899069806e-02 8.4037855235474232e-02 -1.1924690102381523e-02 8.4037855235474232e-02 3.6124444372106927e-02  -2.3380101099748564e-02 9.3059196482747811e-02 -4.5357525271015123e-02 9.3059196482747811e-02 5.0763382791236440e-02 7.5484347353645301e-02 -4.5357525271015123e-02 7.5484347353645301e-02 8.0734277003377437e-03  -6.1968705350064421e-02 6.0270506280715209e-02 -6.3446505177781581e-02 6.0270506280715216e-02 9.4660940237920557e-02 6.8235976149884345e-02 -6.3446505177781581e-02 6.8235976149884345e-02 3.7144121250146187e-03  -8.6133302084181226e-02 2.0153579231545427e-02 -7.5433288859957218e-02 2.0153579231545423e-02 1.0361985873088971e-01 4.7629990063591927e-02 -7.5433288859957218e-02 4.7629990063591927e-02 1.8364473143038296e-02  -7.7915212944970572e-02 -2.3135654975342750e-02 -9.3884133891557101e-02 -2.3135654975342750e-02 1.0382387218598450e-01 3.0327617749006826e-02 -9.3884133891557101e-02 3.0327617749006820e-02 1.4560645936020142e-02  -4.4380023252617765e-02 -7.7254140838488375e-02 -8.0824553034049021e-02 -7.7254140838488389e-02 7.7767119292766751e-02 1.4211355632949346e-03 -8.0824553034049021e-02 1.4211355632949359e-03 -1.3332447954682563e-03  8.2142074512495424e-03 -1.0158141039930704e-01 -8.6254144178463207e-02 -1.0158141039930703e-01 6.1025737041909972e-03 7.1522469986923945e-03 -8.6254144178463207e-02 7.1522469986923971e-03 1.7578707990729619e-02  5.0002345018282962e-02 -4.4107593755770433e-02 -7.9525399193456262e-02 -4.4107593755770440e-02 -7.4652747589747492e-02 -2.5737673422097075e-02 -7.9525399193456234e-02 -2.5737673422097072e-02 4.3590827174148208e-02  1.2436800783767908e-01 -6.3770771956702055e-02 -6.1582502849797223e-02 -6.3770771956702069e-02 -1.0947891401426685e-01 -4.3351084392670207e-02 -6.1582502849797209e-02 -4.3351084392670207e-02 2.6797424239880831e-02  2.0175224547127699e-01 -4.1904973695903493e-02 -7.2542807420751768e-02 -4.1904973695903493e-02 -1.7062773561669589e-01 -9.8553799843766277e-02 -7.2542807420751768e-02 -9.8553799843766277e-02 7.7010328634343983e-02  1.9756774817805037e-01 -2.9948609805914437e-02 -6.4529224139541042e-02 -2.9948609805914437e-02 -1.0441029346652936e-01 -1.5436274801494415e-01 -6.4529224139541028e-02 -1.5436274801494415e-01 2.1075096227655080e-02  1.6672685426759518e-01 -7.5562062002372940e-03 -3.6093625054337511e-02 -7.5562062002372948e-03 -7.8789212676993667e-02 -1.3090713041806240e-01 -3.6093625054337525e-02 -1.3090713041806240e-01 -1.7062182816565533e-02  1.4280268365786206e-01 3.4202341280663102e-05 -2.8508057688366329e-02 3.4202341280663102e-05 -1.1410515374509371e-01 -8.8487129766479947e-02 -2.8508057688366329e-02 -8.8487129766479947e-02 2.0452772551354446e-02  1.1994994765999846e-01 -3.0371430189913264e-02 -4.8783310138324668e-02 -3.0371430189913264e-02 -1.5010527647327346e-01 -5.5904968629373782e-02 -4.8783310138324668e-02 -5.5904968629373782e-02 8.9415575551887991e-02  9.3276065441967912e-02 -3.2616755799862750e-02 -3.9133844617307775e-02 -3.2616755799862750e-02 -1.4636593090022576e-01 -2.7491264675376832e-02 -3.9133844617307775e-02 -2.7491264675376832e-02 1.0021678285300574e-01  6.2575739722090309e-02 -4.8143838156409852e-02 -6.9805172942807069e-03 -4.8143838156409852e-02 -1.0325713741081767e-01 3.8573940549435720e-02 -6.9805172942807078e-03 3.8573940549435720e-02 6.4243041750694799e-02  4.7921258686449218e-02 -7.3737007773390387e-02 -3.6068467859149875e-04 -7.3737007773390387e-02 -8.2922034961079097e-02 1.1521552068138656e-01 -3.6068467859149902e-04 1.1521552068138656e-01 8.7683110198277292e-02  4.5803067654090750e-02 -6.0090397423588744e-02 -1.3127344590677348e-02 -6.0090397423588744e-02 -9.9745891635214023e-02 1.5077113976032183e-01 -1.3127344590677348e-02 1.5077113976032183e-01 1.3319376246107856e-01  9.6161962032480994e-03 1.0311725843291920e-02 -1.7679012144604451e-02 1.0311725843291920e-02 -2.3220220430768143e-02 1.6454829973584661e-01 -1.7679012144604451e-02 1.6454829973584661e-01 5.4674231325288238e-02  1.4489540444848788e-02 3.3728519625792082e-03 6.0448813797869096e-03 3.3728519625792082e-03 -2.5036784846213810e-02 1.5118151643573807e-01 6.0448813797869096e-03 1.5118151643573807e-01 4.1223567161457392e-02  1.9628555176024420e-02 -8.8710760713699311e-03 3.7562994722894351e-02 -8.8710760713699311e-03 -2.9368103786468553e-02 1.4533170172021898e-01 3.7562994722894351e-02 1.4533170172021898e-01 4.1003446760683564e-02  2.5467405464395812e-02 -2.1539292735464313e-02 5.7351702581412041e-02 -2.1539292735464313e-02 -2.0943174419711452e-02 1.2981977454232774e-01 5.7351702581412041e-02 1.2981977454232774e-01 2.6139606845729718e-02  1.9440482984541256e-02 -1.8241066780919881e-02 8.1300269860620569e-02 -1.8241066780919881e-02 -1.7470287639824632e-02 1.1440182317877735e-01 8.1300269860620569e-02 1.1440182317877735e-01 2.3488827529576015e-02  4.6676416668568539e-02 -1.2461201464306697e-02 7.2126172763825006e-02 -1.2461201464306697e-02 3.4525298022821792e-04 8.5654930199670617e-02 7.2126172763825033e-02 8.5654930199670604e-02 -3.4247914916022984e-02  5.0993484105976525e-02 -1.9456573929632546e-02 8.6201307038953470e-02 -1.9456573929632542e-02 6.1251110210068923e-03 5.0345034807948975e-02 8.6201307038953470e-02 5.0345034807948975e-02 -4.4099665776782107e-02  2.0411586583407436e-02 -3.7952951735253544e-02 1.1514068958609976e-01 -3.7952951735253544e-02 2.0405368578954152e-02 3.9263376880108426e-02 1.1514068958609976e-01 3.9263376880108426e-02 -1.4262261628672897e-02  2.7058149150954305e-02 -4.0592303613274261e-02 1.0457612958648790e-01 -4.0592303613274261e-02 4.2245332315063569e-02 5.1728465579035801e-03 1.0457612958648790e-01 5.1728465579035801e-03 -4.8968785066343598e-02  1.2697382699303967e-02 -4.1645531077302213e-02 1.0609376972480840e-01 -4.1645531077302213e-02 6.0254372854865582e-02 -1.1390712659518956e-02 1.0609376972480840e-01 -1.1390712659518958e-02 -5.1580160577923626e-02  -1.5110448679653913e-02 -2.4749207377474342e-02 9.7804193182735671e-02 -2.4749207377474342e-02 7.1065272290818327e-02 -4.0200378328681723e-02 9.7804193182735671e-02 -4.0200378328681723e-02 -3.4554437645265321e-02  -2.4478272242617831e-02 5.6359788386309674e-03 9.5944548925454926e-02 5.6359788386309674e-03 5.8599705820195656e-02 -5.6603553514676774e-02 9.5944548925454926e-02 -5.6603553514676774e-02 -8.7784552476511558e-03  5.4235228111337661e-03 8.6993420854745498e-03 6.1988463842312186e-02 8.6993420854745516e-03 6.7563308488450824e-02 -6.3602996063716388e-02 6.1988463842312186e-02 -6.3602996063716388e-02 -5.6918654877760613e-02  1.2294728931595451e-02 -3.3600316716356882e-02 -1.0004524640783522e-02 -3.3600316716356882e-02 8.3484881379795137e-02 -8.5325643765052764e-02 -1.0004524640783538e-02 -8.5325643765052764e-02 -8.3354621130528592e-02  -1.7309366951201773e-02 2.6979416262712008e-02 4.4675590030605297e-02 2.6979416262712008e-02 4.8823246132062251e-02 -8.0800745304916821e-02 4.4675590030605297e-02 -8.0800745304916821e-02 -1.2921710597353121e-02  8.4702053055798629e-02 -4.1334394716088969e-02 4.1844188524201867e-02 -4.1334394716088969e-02 -1.0327991741702401e-01 3.7260657190914100e-02 4.1844188524201867e-02 3.7260657190914093e-02 4.9446059783244629e-02  8.3803959518777227e-02 -4.3580266780406815e-02 5.2435264208935482e-02 -4.3580266780406815e-02 -1.1330480388813773e-01 3.8471896529565243e-03 5.2435264208935482e-02 3.8471896529565196e-03 5.9244310788182389e-02  1.0414270586598942e-01 -6.9003822524456901e-02 5.4912176822899346e-02 -6.9003822524456887e-02 -1.3800240738809821e-01 -5.0542474923841703e-03 5.4912176822899339e-02 -5.0542474923841712e-03 8.5592231974206220e-02  1.3528393560853466e-01 -6.9690054086667647e-02 6.0297754231896962e-02 -6.9690054086667647e-02 -1.6228495216282576e-01 1.6358665131554533e-02 6.0297754231896962e-02 1.6358665131554529e-02 1.0231996272366216e-01  1.2389857233474522e-01 -5.9236940472202328e-02 5.8418472320616796e-02 -5.9236940472202328e-02 -1.5792807075476131e-01 2.9614180112781493e-02 5.8418472320616768e-02 2.9614180112781493e-02 1.0388416923588828e-01  1.1249182592215076e-01 -4.5788965700787380e-02 4.5597807701574893e-02 -4.5788965700787380e-02 -1.5882650204235965e-01 2.3509668861580447e-02 4.5597807701574893e-02 2.3509668861580447e-02 1.0791729517815637e-01  8.5316655500430882e-02 -3.7839659840835989e-02 3.5843022366827258e-02 -3.7839659840835989e-02 -1.5146799216860216e-01 1.0828631108210189e-02 3.5843022366827258e-02 1.0828631108210189e-02 1.1845140154167819e-01  5.7570814063912401e-02 -3.5500886915057955e-02 6.4383874343869982e-02 -3.5500886915057955e-02 -1.3388989323136391e-01 -9.1593311224078423e-03 6.4383874343869968e-02 -9.1593311224078423e-03 1.1747662574497379e-01  4.4813308855431430e-02 -2.0679763611203980e-02 7.0644512065808837e-02 -2.0679763611203980e-02 -5.0064602508799412e-02 -6.4540346328750631e-03 7.0644512065808837e-02 -6.4540346328750640e-03 1.0542775737340880e-02  1.5026653329667902e-01 5.2026273521177516e-02 -3.5317504480773532e-02 5.2026273521177488e-02 -1.3414184595113901e-01 -7.1099007723071775e-02 -3.5317504480773532e-02 -7.1099007723071775e-02 3.8189697785643358e-02  1.2367023575256066e-01 1.3161123837710456e-01 -1.2417504102544325e-02 1.3161123837710456e-01 -9.7133253776491582e-02 -7.7356310220552921e-02 -1.2417504102544330e-02 -7.7356310220552921e-02 3.9161609945566930e-02  3.7585899566944601e-02 1.5527400346468107e-01 1.3276476781410322e-02 1.5527400346468107e-01 -3.5351408040447431e-02 -7.4832108844068018e-02 1.3276476781410314e-02 -7.4832108844068018e-02 5.8777649787853915e-02  -5.2594361537156846e-02 1.5202223863573239e-01 3.0374209028268623e-02 1.5202223863573239e-01 5.5487032769591126e-02 -7.0984939889120829e-02 3.0374209028268630e-02 -7.0984939889120843e-02 5.9447273803991313e-02  -1.0836339900333100e-01 9.3545995876740839e-02 4.8071999445195204e-02 9.3545995876740839e-02 8.6974238694225797e-02 -6.7987178446579796e-02 4.8071999445195204e-02 -6.7987178446579796e-02 7.3941729307956533e-02  -1.2023773796317129e-01 3.4391418224620260e-02 6.9448149261900072e-02 3.4391418224620260e-02 1.1716386459306317e-01 -4.9978852381736126e-02 6.9448149261900044e-02 -4.9978852381736126e-02 5.1246917500585569e-02  -9.5745407583958608e-02 -3.5363020500946418e-02 8.3568612496240952e-02 -3.5363020500946418e-02 9.6673737992939185e-02 -2.9425166831432439e-02 8.3568612496240952e-02 -2.9425166831432439e-02 3.5537140938213828e-02  -9.0961732915139468e-02 -5.3785839863355417e-02 6.9301494428759755e-02 -5.3785839863355417e-02 6.7817447719678570e-02 -2.4581771748662246e-02 6.93014944