<?xml version="1.0"?>
<VTKFile type="UnstructuredGrid"  version="0.1"  >
<UnstructuredGrid>
<Piece  NumberOfPoints="1268" NumberOfCells="4847">
<Points>
<DataArray  type="Float64"  NumberOfComponents="3"  format="ascii">1.994716987487452 0.01317707561264319 -1.202466945460223e-11  1.374072606111497 -0.08614134488653273 -5.388997575085332  -1.285941478930618 0.1916557790035214 -5.691288663606836  -1.59032616235459 -0.4515196446136259 1.626303258728257e-17  0.4950030257755884 2.521650519233041 -5.495391852657774  -0.4107718940653654 -2.429115409112172 -5.58531208084276  -0.9314707163843408 -3.006923447963563 4.87890977618477e-17  1.161824811771535 2.948440156756841 -3.391384395534658e-14  2.146749234505421 0.002696741478414759 -0.5615078450779066  2.330988047973839 -0.000873250973709995 -1.113141311680313  2.540713632977715 -0.1384292375506191 -1.637427654548237  2.645241452520652 -0.2872312815961211 -2.18637082393926  2.504842461151312 -0.2752146673621067 -2.746850782899552  2.287876352721185 -0.2088259978706829 -3.283011632728322  2.137771360922677 -0.2093380261300688 -3.844996501809416  1.970142554575494 -0.2193701374385486 -4.401638277082749  1.701580801829277 -0.1696632515169769 -4.915066532844666  1.398049690886424 0.4419377546899956 -5.387643705321969  1.183972204621215 0.9208338616597355 -5.413149504812257  0.7621482426349403 1.234356207118232 -5.461782499987256  0.2539805730796886 1.370727420898931 -5.519751404145364  -0.2689415860383004 1.319053689498898 -5.578906487138381  -0.7357170559581984 1.076180709179107 -5.631191713357971  -1.086003096318238 0.6812820615514149 -5.669884670156524  -1.65706961757681 -0.5275128747266272 -0.6240725009925172  -1.829082870387909 -0.8347372240299333 -1.153553189134448  -2.030635262011336 -1.097965926806997 -1.693320688638939  -2.148557703924963 -0.9683820133813712 -2.295450526931833  -2.119047321408695 -0.7521727279271558 -2.890676896601294  -1.972500555455803 -0.7106310836492745 -3.509380855831461  -1.885028119342598 -0.4902108162504233 -4.093718100793141  -1.832050776792238 -0.1313823297003599 -4.617858136599065  -1.636180550340053 0.1151199882480144 -5.165527944859976  -1.540434086810702 0.1014447694855235 -7.644826989049428e-17  -1.339902801239663 0.6191128040412099 2.218327606354497e-17  -0.9949589579071262 1.053322092476122 2.12059320661159e-17  -0.5243975458638882 1.346285776146202 7.754217898549941e-16  0.01399251627036286 1.481823287560149 3.252316763596149e-17  0.5696211504784076 1.47677978548424 -7.207855520904863e-17  1.105448032340458 1.331487337928338 1.951563910473908e-16  1.561367740818086 1.018090979386763 -2.179459114756194e-16  1.860006992193919 0.551530302300456 1.369433074745588e-16  -0.152869286718376 2.506583809965366 -5.568804938302105  -0.7781210310064858 2.335338381675429 -5.639249366957451  -1.340550096787874 2.011723800088065 -5.702178028336585  -1.803922993566052 1.555830170950866 -5.753534898075912  -2.144678763029901 1.000979069722826 -5.790734833138769  -2.346903237737564 0.3811866585909049 -5.812061421922149  -2.406990243842066 -0.2684488461825228 -5.817196438260218  -2.318433628103212 -0.9144163570965761 -5.805488779558074  -2.059391262210163 -1.511004864267824 -5.774580158166454  -1.615755841275718 -1.983465489741105 -5.72306417450185  -1.043145925381342 -2.287058241276404 -5.657361969815248  -0.6986882361605687 -2.420627649803484 -5.024556445072709  -0.8272574030199392 -2.685291244074475 -4.476216325063944  -0.8113210073272845 -3.118860027310894 -4.01596683617901  -0.7618552434953355 -3.481598098596065 -3.504026669625047  -0.7509882165597778 -3.609083979854663 -2.886473298216772  -0.7986167670519319 -3.732483084086931 -2.268445488219849  -0.8276969497603353 -3.810997815301134 -1.64593496945388  -0.7425506523451623 -3.557242155569485 -1.078322423839125  -0.7147449622328144 -3.21189056194362 -0.5511080601316157  -1.482234509376526 -2.778582553401298 -5.854479658363816e-16  -1.970737176894139 -2.437284655419533 2.764697292186607e-16  -2.362818572203899 -1.988727212877528 2.439101268600111e-16  -2.642390785384022 -1.462244173776716 5.051059276813266e-16  -2.812149102113852 -0.89052423419162 2.276851973687203e-16  -2.877946727920729 -0.2976446157883296 -1.219909928720168e-16  -2.842947107925845 0.2978601752284433 4.065446096494693e-17  -2.70313036896374 0.8776122116387211 -5.041496169361013e-16  -2.452324348076021 1.418519584933707 4.379274460317988e-16  -2.098265626135573 1.898294456130726 1.951060033519619e-16  -1.658391347368763 2.301023318502569 -1.789574489620802e-16  -1.154148079923361 2.619757341302747 -2.081203863085907e-15  -0.6042202207747882 2.851073703499478 -3.577841418755692e-16  -0.02416138323675775 2.990516581461941 4.065982498622179e-16  0.5710641261211448 3.028216945076794 -1.46882551317968e-16  0.6414151130412097 2.696325287154043 -4.983333021490838  0.771852374565919 2.778456367279237 -4.445188759107248  0.8805845204306011 2.73078881179073 -3.897720120696569  0.9481597620953167 2.69798349057175 -3.343104559074628  0.9815370707090804 2.778214865778854 -2.789250505759619  1.013475345489448 2.861817704396183 -2.235671116027784  1.055849759321274 2.898356228459238 -1.677594140621302  1.093646323460014 2.92793989028903 -1.118725590781912  1.124098871622056 2.957526991478201 -0.5594169689370629  0.2477015793419729 -2.415655802610486 -5.510682951113449  0.8844491790088972 -2.245867158009595 -5.438931443942415  1.464891069119211 -1.932330028996181 -5.373934600293736  1.955087092649627 -1.489613175355717 -5.319502697776375  2.318355026965356 -0.937054784961175 -5.279744576064058  2.524994411863564 -0.307899182343253 -5.257941630215678  2.574632820450045 0.3531084349228537 -5.254020561031156  2.465743861849647 1.006614152640354 -5.268052816559671  2.183897076015212 1.604484044160622 -5.301550147358176  1.722560240631265 2.07491696755195 -5.35506775502591  1.13806318635062 2.378906583716481 -5.422118662603529  1.742182153284979 2.73179858498085 5.854691697147836e-16  2.262480931380501 2.395264875892136 -2.601681534737615e-16  2.698000706832733 1.954727370266727 -3.903113804560263e-16  3.021530388777258 1.426473918441798 1.707421408502106e-16  3.223363606607101 0.8405687193648443 -2.844806418042028e-16  3.305434793487241 0.2261994274297442 -4.472186606099012e-16  3.269241566985055 -0.3926051469820059 3.171555149681837e-16  3.113478077610213 -0.9924495549400153 3.510830505762065e-16  2.840400132149515 -1.548806515270482 -1.707368614952523e-16  2.466120284856568 -2.042983582774378 9.732831365154574e-17  2.008125599488538 -2.460814027017948 -3.577575055983979e-16  1.482521285196868 -2.789563899556613 -4.886146623064541e-17  0.9057866143556688 -3.01678997208197 -2.439392613813594e-16  0.2964958724913082 -3.130681163554852 3.414395345104792e-16  -0.32338307292875 -3.126978161260848 2.926910878106614e-16  -1.29067345658392 -0.3506098753383553 -5.690421630247788  -1.068897680254163 -0.8451623229646739 -5.663999894259847  -0.6782440885714781 -1.219621806060448 -5.6187489875115  -0.168757542531344 -1.390394566692369 -5.560546895724229  0.3611301401510615 -1.294122251639114 -5.500717901478111  0.8191548613516448 -1.005201308695582 -5.449538098373106  1.16817203978903 -0.5892762115769014 -5.411042670828763  1.960898302630318 -0.551652302616722 -8.131516293641286e-17  1.751009740180289 -1.077278642631261 7.445724005953314e-16  1.394016468000002 -1.516729095803803 1.136104663605282e-15  0.9227767039454898 -1.830301465573364 3.434443593283319e-16  0.3780412068884804 -1.984007749105097 8.617772484356591e-16  -0.1885780664025548 -1.977994130030172 2.357202029695971e-16  -0.7327557451871473 -1.821291124380143 1.942410916395698e-17  -1.191068596016128 -1.491774666596192 2.975009434367945e-16  -1.480405544894888 -1.006855825633415 6.954512630084263e-16  -1.812414118534285 0.2561131097252937 -2.664867827914479  2.421751940242729 0.6298287624476981 -1.933377861698098  0.7556418177061754 1.42269463362527 -4.617654324361507  0.003134751711410342 1.574821943356493 -0.9318675177876981  1.015098001669947 1.51699057942374 -0.9441494884276413  0.6193243625380082 1.764115149411371 -1.862230514405671  -0.4757031201037318 1.549728101933577 -1.958273018773558  0.1126459993007786 1.698838152590054 -2.957602797129454  -0.3405660022430232 1.569615851499001 -4.678135257405353  1.818199099779932 0.7365610114574719 -3.763003518505052  -0.9541815370276669 1.23451227632913 -2.875526912859068  -1.269464226480212 1.016489154450913 -4.672047638709048  1.301562892980348 1.557566760682666 -2.802482532053872  -0.7813756340336595 1.414221906310649 -3.725761628685261  -1.58370798409762 0.5643609111372817 -3.581008460136619  -0.988817348255397 1.158392548936659 -1.014254585170146  -1.607700527190565 0.2800106654898483 -1.030081240453645  -1.388203055800784 0.7951310659851955 -1.943712885648593  0.8261955720421881 1.570157055202129 -3.620947225245673  1.681455131778566 1.410849015379531 -1.876189895849114  1.878739160554727 0.943024132521903 -0.9866418074548234  2.103426639579445 1.000735947836943 -2.593434794762663  1.62623803052506 0.6468498306152269 -4.727220189271843  -1.882943490361709 -0.1546739965127431 -1.761716647663214  0.05868355051519467 1.656538949473053 -3.863342338366238  2.465845305360337 0.2632819454094029 -2.663569745038379  1.994842599423799 0.5019775153043848 -0.4779055074204815  2.1671824130763 0.4980244878585698 -1.027636182799239  1.710213566460811 0.9718796190568162 -0.4957578884333736  1.845584590132108 0.2253887364997403 -4.583879812097906  1.579035044615276 0.2924902970866011 -5.101748935835201  1.409777182251665 0.7868327264427526 -5.07202467441607  -1.039178737375989 1.089168173550246 -5.170746090958521  -1.377687418630729 0.6683636420802941 -5.233117919580046  -1.641402128985454 0.4875654733502939 -4.648722230221863  -1.765467255797776 -0.2695484060062747 -1.079683539430899  -1.617858736076732 -0.08318463488274264 -0.5123563299218489  -1.474019211051276 0.4496529111656123 -0.5150171376928306  2.417677350191343 0.3274903893149403 -1.506992657970159 
[...]
<PointData  Tensors="strain"> 
<DataArray  type="Float64"  Name="strain"  NumberOfComponents="9" format="ascii">-4.4417736728410075e-02 -9.7821781656054659e-03 -2.9953936785533930e-01 -9.7821781656054659e-03 1.1714250993193788e-02 -4.4039102140187865e-02 -2.9953936785533930e-01 -4.4039102140187865e-02 2.3358952610031272e-01  -1.9005503413070468e-01 5.2166990171363607e-02 1.5247675871121347e-01 5.2166990171363621e-02 3.9404276562082169e-01 -8.5719936248205730e-02 1.5247675871121344e-01 -8.5719936248205730e-02 2.6437671809132458e-02  -1.4613642890124334e-01 8.0639492887360525e-02 -1.8354240109465242e-01 8.0639492887360525e-02 3.6988751814741777e-01 9.6503018833552764e-02 -1.8354240109465242e-01 9.6503018833552778e-02 1.2170715175625194e-02  -6.5948743009474967e-02 -3.7982429603178776e-02 2.7984233601472419e-01 -3.7982429603178776e-02 3.3404938250818105e-03 -2.7022982887678827e-02 2.7984233601472419e-01 -2.7022982887678827e-02 2.6178269947371152e-01  9.8286112909541090e-02 -1.0957270876413641e-02 5.9975384416740191e-02 -1.0957270876413634e-02 -9.6139238296145929e-02 6.0860137208308740e-02 5.9975384416740191e-02 6.0860137208308740e-02 3.2273854793918845e-02  1.7541608520124635e-01 -7.4534451214281665e-03 -5.3971118956946153e-02 -7.4534451214281717e-03 -1.5543303251285834e-01 -4.0750670786360049e-02 -5.3971118956946167e-02 -4.0750670786360049e-02 3.7789724567738860e-02  -1.3457841766430893e-03 1.0779427268555325e-02 -4.7971491817081338e-02 1.0779427268555325e-02 -1.7865984569453930e-02 1.8992228652234255e-01 -4.7971491817081331e-02 1.8992228652234255e-01 8.4665275062522943e-02  6.5547203796444027e-03 2.9295243363870134e-02 6.0388967882373829e-02 2.9295243363870134e-02 4.7816107791538234e-02 -8.9838675828200279e-02 6.0388967882373829e-02 -8.9838675828200279e-02 -3.3898359924704975e-02  -1.9094703408088043e-01 -4.5041940010041547e-02 -1.6907070485085596e-01 -4.5041940010041547e-02 1.9805241193534562e-01 -8.6249163289384076e-02 -1.6907070485085604e-01 -8.6249163289384076e-02 1.8000694517275470e-01  -2.2386862891671030e-01 -6.1605707254359522e-02 -1.3438454621812310e-01 -6.1605707254359522e-02 2.8059201754673679e-01 -6.6903300728200291e-02 -1.3438454621812310e-01 -6.6903300728200291e-02 1.5182406209140029e-01  -2.5742681898119996e-01 -1.0613790371998970e-02 -1.1576939955373113e-01 -1.0613790371998971e-02 3.0591320643490377e-01 -3.6162698427623985e-02 -1.1576939955373113e-01 -3.6162698427623992e-02 1.7444947281914799e-01  -2.8236286295865609e-01 2.8529077945024742e-02 1.8841405333438908e-03 2.8529077945024742e-02 2.9311357910003699e-01 -5.7564656541159158e-02 1.8841405333438908e-03 -5.7564656541159158e-02 2.2009491531884823e-01  -2.4097257526337842e-01 -4.3254446157239054e-03 1.3410716529699543e-01 -4.3254446157239088e-03 3.5169568682057323e-01 -7.4878864251228347e-02 1.3410716529699540e-01 -7.4878864251228347e-02 1.2648574806374521e-01  -2.3217246535067068e-01 -4.7361832890785126e-02 1.1876548138311226e-01 -4.7361832890785126e-02 4.0491377013564167e-01 -2.6688341287770683e-02 1.1876548138311226e-01 -2.6688341287770683e-02 6.0998666366456768e-02  -2.4638320566935565e-01 -1.5527819269403843e-02 1.0390387620559327e-01 -1.5527819269403840e-02 4.1616482300712582e-01 -1.6541563355679446e-02 1.0390387620559326e-01 -1.6541563355679446e-02 6.6805832602173293e-02  -2.2450283520712500e-01 9.3193858173548690e-03 1.3644606690910818e-01 9.3193858173548725e-03 3.9113202790963325e-01 -4.4211861900703774e-02 1.3644606690910821e-01 -4.4211861900703774e-02 6.3048177226696547e-02  -1.7696447367329740e-01 3.8166709353169521e-02 1.7643139828265494e-01 3.8166709353169515e-02 3.8448514716536053e-01 -5.9458360781824753e-02 1.7643139828265494e-01 -5.9458360781824753e-02 2.8267652060475278e-02  -1.5605763488888252e-01 -1.3966968184248632e-01 1.8767308098805513e-01 -1.3966968184248632e-01 3.1852141974600168e-01 -1.5139577204021716e-02 1.8767308098805521e-01 -1.5139577204021717e-02 6.4558309876124154e-02  1.7937838860184192e-02 -2.8433683064880033e-01 1.4915931493133089e-01 -2.8433683064880033e-01 1.2484175299883862e-01 6.0537448637808057e-02 1.4915931493133083e-01 6.0537448637808057e-02 8.5743840912813715e-02  2.2595736161349278e-01 -2.2557934998355633e-01 1.1338824032116754e-01 -2.2557934998355633e-01 -1.1139347222357682e-01 1.2104247885016099e-01 1.1338824032116754e-01 1.2104247885016099e-01 1.1167817649628713e-01  3.1457351674400141e-01 -5.3918475986649811e-02 6.9594940864173130e-02 -5.3918475986649811e-02 -2.0129819757161196e-01 1.7448265100432417e-01 6.9594940864173144e-02 1.7448265100432417e-01 1.1569245025316506e-01  2.8338599910217838e-01 1.2489893473201473e-01 -9.1026032604609956e-03 1.2489893473201472e-01 -1.5035201466374512e-01 2.0899280736992135e-01 -9.1026032604609956e-03 2.0899280736992135e-01 1.0036779616455989e-01  1.3861069477457411e-01 2.4066845994588956e-01 -7.7801729995342711e-02 2.4066845994588956e-01 1.5010369578442541e-02 1.9659557045019160e-01 -7.7801729995342711e-02 1.9659557045019160e-01 7.5024671503322218e-02  -3.1896818369192698e-02 2.2131104832270146e-01 -1.3813686032910197e-01 2.2131104832270146e-01 2.1419197230774323e-01 1.6262436405362293e-01 -1.3813686032910197e-01 1.6262436405362293e-01 4.8365126331369142e-02  -2.0631019619363994e-01 -2.0011039598831229e-02 1.5798703677371706e-01 -2.0011039598831229e-02 1.7324169584695565e-01 1.5326592073625913e-02 1.5798703677371709e-01 1.5326592073625913e-02 2.0279253295317307e-01  -2.1286370157890375e-01 -4.2191670961046007e-02 1.3978819922737143e-01 -4.2191670961046007e-02 2.6888701422007649e-01 1.0528116100111671e-02 1.3978819922737143e-01 1.0528116100111671e-02 1.3027455845384589e-01  -2.4239298072485224e-01 -4.0814509378224659e-02 1.2270171247083342e-01 -4.0814509378224659e-02 2.8095362630781445e-01 3.1755414704451826e-02 1.2270171247083342e-01 3.1755414704451826e-02 1.7175919898959199e-01  -2.8279532726046258e-01 -1.5648869153695844e-02 2.5221953371420389e-02 -1.5648869153695837e-02 3.1268337548072905e-01 5.7739776074751947e-02 2.5221953371420389e-02 5.7739776074751947e-02 1.9677519570937743e-01  -2.7809210476409280e-01 6.2094357910077802e-03 -5.0169650660023914e-02 6.2094357910077802e-03 3.4602147164475411e-01 9.5154612768532681e-02 -5.0169650660023914e-02 9.5154612768532681e-02 1.6593505691523652e-01  -2.5862275507708504e-01 -2.1408331567664453e-02 -6.9377360827169166e-02 -2.1408331567664449e-02 3.8440556779052548e-01 1.1236695957090366e-01 -6.9377360827169166e-02 1.1236695957090366e-01 1.0504066962977229e-01  -2.6814366102606468e-01 -1.2460440738767245e-02 -5.0348037445573646e-02 -1.2460440738767238e-02 3.8223721390702498e-01 1.2635883744812715e-01 -5.0348037445573646e-02 1.2635883744812715e-01 1.1885575761718500e-01  -2.7015563217902672e-01 4.8574422552313694e-02 -6.7279150107596941e-02 4.8574422552313680e-02 3.5942292974917461e-01 1.1068997321852329e-01 -6.7279150107596941e-02 1.1068997321852329e-01 1.4951258708864659e-01  -2.1394705828576921e-01 6.7644062860241508e-02 -1.4704903750879034e-01 6.7644062860241522e-02 3.5036014551417355e-01 1.1394357178538568e-01 -1.4704903750879034e-01 1.1394357178538568e-01 1.0525189264836649e-01  -9.1209325991689807e-02 -2.1725871444136309e-03 2.7075086061115577e-01 -2.1725871444136353e-03 1.4452128839061922e-02 -6.5588603450804500e-02 2.7075086061115577e-01 -6.5588603450804500e-02 2.7818371238567602e-01  -8.1311833881328829e-02 3.1890031475863521e-02 2.3051910096018449e-01 3.1890031475863521e-02 -8.6581661651091691e-04 -1.4363162514835684e-01 2.3051910096018449e-01 -1.4363162514835684e-01 2.8261410529124287e-01  -5.9267940187677975e-02 5.8380181281954810e-02 1.9354633967822593e-01 5.8380181281954810e-02 -3.0367378244159606e-02 -1.9137167674529243e-01 1.9354633967822593e-01 -1.9137167674529243e-01 2.9360635194327450e-01  -1.8551804564437471e-02 4.7230638955018174e-02 1.1686515634046861e-01 4.7230638955018174e-02 -7.0091735698028124e-02 -2.3718925417575470e-01 1.1686515634046861e-01 -2.3718925417575470e-01 2.9872275727719277e-01  4.1244063080437513e-04 3.1818873312775553e-02 7.2348770800979539e-02 3.1818873312775553e-02 -9.2461555883790597e-02 -2.6210034842313779e-01 7.2348770800979539e-02 -2.6210034842313779e-01 3.0766560653830394e-01  4.5822347212376028e-03 4.5892535189615887e-03 -2.4139514533573235e-02 4.5892535189615870e-03 -9.9511095511943842e-02 -2.7344605603603794e-01 -2.4139514533573235e-02 -2.7344605603603794e-01 3.1921374760073673e-01  1.1750466651696609e-02 -1.8149473612460658e-02 -8.9703538930840099e-02 -1.8149473612460654e-02 -8.0686316271595865e-02 -2.7081945916561406e-01 -8.9703538930840099e-02 -2.7081945916561406e-01 2.7482201871473677e-01  -1.9669173592098688e-02 -5.2807780939813427e-02 -2.0627611977400978e-01 -5.2807780939813427e-02 -5.3921028745154830e-02 -1.9763398960959833e-01 -2.0627611977400978e-01 -1.9763398960959833e-01 3.0192260452454234e-01  -7.3038514427928844e-02 -4.3698388869854797e-02 -2.6695929791738415e-01 -4.3698388869854797e-02 -2.4500187771807770e-02 -1.1638201821626443e-01 -2.6695929791738421e-01 -1.1638201821626443e-01 3.3202719563191180e-01  8.6542141083837079e-02 3.6793156661738442e-02 3.0977276662414319e-02 3.6793156661738442e-02 -8.9356916391021446e-02 8.0124028754691226e-02 3.0977276662414319e-02 8.0124028754691226e-02 3.7694958886218828e-02  7.2266481793033549e-02 7.8277809977773283e-02 1.4021150863929983e-02 7.8277809977773283e-02 -6.5315399177256248e-02 8.5949356582228145e-02 1.4021150863929983e-02 8.5949356582228145e-02 3.0850663329307214e-02  1.6132082176558725e-02 9.1324069248329698e-02 -1.6452367583224693e-02 9.1324069248329698e-02 -2.1370913130667243e-02 8.9684495358004976e-02 -1.6452367583224693e-02 8.9684495358004976e-02 3.9953924965574782e-02  -2.2444153537810780e-02 9.9514785641685019e-02 -4.9533266824877485e-02 9.9514785641685019e-02 5.2903042828096006e-02 8.0676137601574452e-02 -4.9533266824877485e-02 8.0676137601574452e-02 1.0490923125990774e-02  -6.3757302731519958e-02 6.4208196667035533e-02 -6.9026179302315471e-02 6.4208196667035533e-02 9.8789064944230592e-02 7.2262452513581613e-02 -6.9026179302315471e-02 7.2262452513581613e-02 6.2156787381965079e-03  -9.0703958313948604e-02 2.2067496666124755e-02 -8.1659522921928504e-02 2.2067496666124772e-02 1.1007336470159952e-01 4.9978235395187774e-02 -8.1659522921928504e-02 4.9978235395187774e-02 2.1793248405925430e-02  -8.1950470178234064e-02 -2.3955615668441736e-02 -1.0175287037231762e-01 -2.3955615668441746e-02 1.1204926289928253e-01 3.1606312600590707e-02 -1.0175287037231762e-01 3.1606312600590707e-02 1.6932864448315113e-02  -4.6222644448868394e-02 -8.1510612654382336e-02 -8.7595827867953627e-02 -8.1510612654382322e-02 8.2410170037529526e-02 5.5248540436234918e-04 -8.7595827867953627e-02 5.5248540436235926e-04 6.0752055600621737e-04  1.0981699558072225e-02 -1.0925773370715815e-01 -9.1851403892147673e-02 -1.0925773370715815e-01 6.6718815686623405e-03 4.0704870254775283e-03 -9.1851403892147673e-02 4.0704870254775283e-03 1.9132012223461194e-02  5.4218273817950316e-02 -4.9445943027927063e-02 -8.2448643166262672e-02 -4.9445943027927076e-02 -7.8939570754684302e-02 -3.1899465608774817e-02 -8.2448643166262658e-02 -3.1899465608774824e-02 4.7693027901507014e-02  1.3172921523150596e-01 -7.0636546299852179e-02 -6.2278979758326594e-02 -7.0636546299852179e-02 -1.1547167507483014e-01 -4.6307483296577245e-02 -6.2278979758326573e-02 -4.6307483296577245e-02 3.0779045071225652e-02  2.1234417048387538e-01 -4.4491748710558388e-02 -7.5503791354873118e-02 -4.4491748710558367e-02 -1.7627323657710045e-01 -1.0473833630548922e-01 -7.5503791354873118e-02 -1.0473833630548922e-01 8.3153925949338181e-02  2.0790456133256693e-01 -3.3995491744616406e-02 -6.7462326022295432e-02 -3.3995491744616406e-02 -1.0709735369747884e-01 -1.6161002437110511e-01 -6.7462326022295432e-02 -1.6161002437110511e-01 2.5034836421246608e-02  1.7735657729747079e-01 -9.1357464350087930e-03 -3.6763008029975036e-02 -9.1357464350087965e-03 -8.1821896378239681e-02 -1.3922862067119196e-01 -3.6763008029975036e-02 -1.3922862067119196e-01 -1.5541198843258011e-02  1.5170067980889751e-01 -2.6046529991563161e-03 -2.9373254446811662e-02 -2.6046529991563231e-03 -1.2118479623857699e-01 -9.4829555785305289e-02 -2.9373254446811662e-02 -9.4829555785305289e-02 2.6063777099748772e-02  1.2753846384611472e-01 -3.3360642404184307e-02 -4.9423981402650849e-02 -3.3360642404184307e-02 -1.5820788003794126e-01 -6.0182390489925207e-02 -4.9423981402650849e-02 -6.0182390489925207e-02 9.7952431187833797e-02  9.8401973108205532e-02 -3.5581803116857276e-02 -3.9652108837269932e-02 -3.5581803116857276e-02 -1.5531410890559366e-01 -2.8073145092150493e-02 -3.9652108837269932e-02 -2.8073145092150486e-02 1.1112376005290181e-01  6.7184410586743140e-02 -5.2286906996842977e-02 -6.9551783588566347e-03 -5.2286906996842977e-02 -1.1204094888747568e-01 4.2267136823827808e-02 -6.9551783588566347e-03 4.2267136823827801e-02 7.4166356398629937e-02  5.2829178494323704e-02 -7.6159406190740769e-02 -2.5061150208013471e-04 -7.6159406190740769e-02 -9.0386578902456341e-02 1.2122766005933443e-01 -2.5061150208013461e-04 1.2122766005933443e-01 9.7698313541105641e-02  4.8452063660166043e-02 -6.4301546720505032e-02 -1.0181154745412284e-02 -6.4301546720505032e-02 -1.0390546806458051e-01 1.6007961112842461e-01 -1.0181154745412287e-02 1.6007961112842461e-01 1.4526415417330396e-01  6.8749638414621920e-03 8.6354817741981296e-03 -1.2591124711011634e-02 8.6354817741981296e-03 -2.2838768911512045e-02 1.7958485258776330e-01 -1.2591124711011634e-02 1.7958485258776330e-01 6.5720312157229940e-02  1.1320318996727476e-02 2.9920784528791409e-03 1.2962158988720565e-02 2.9920784528791409e-03 -2.4921039358957203e-02 1.6473766994722838e-01 1.2962158988720565e-02 1.6473766994722838e-01 5.1623962024911381e-02  1.6106181735287481e-02 -8.4427712608518748e-03 4.5943028678558047e-02 -8.4427712608518748e-03 -2.9159675123752882e-02 1.5773090527835026e-01 4.5943028678558047e-02 1.5773090527835026e-01 5.1605642522360606e-02  2.1889020969250782e-02 -2.1358864799493806e-02 6.6990754658917628e-02 -2.1358864799493806e-02 -1.9539793967517545e-02 1.4124035132900067e-01 6.6990754658917628e-02 1.4124035132900067e-01 3.5382714481721998e-02  1.6912120359573964e-02 -1.7141667559452282e-02 9.2418719444901071e-02 -1.7141667559452282e-02 -1.7248319487974395e-02 1.2255282972466068e-01 9.2418719444901071e-02 1.2255282972466068e-01 3.1703578635345023e-02  4.5627574281246246e-02 -1.1589549023870513e-02 8.4701543887099814e-02 -1.1589549023870513e-02 4.4653816073602986e-04 9.2202391043006968e-02 8.4701543887099814e-02 9.2202391043006954e-02 -2.9242084269281741e-02  5.0444180599898511e-02 -1.9566101872583428e-02 9.9117297939017648e-02 -1.9566101872583432e-02 6.4689532740144148e-03 5.3839991550887402e-02 9.9117297939017648e-02 5.3839991550887402e-02 -4.0258989321957719e-02  2.1332554172345686e-02 -3.7708363140482988e-02 1.2964187648620895e-01 -3.7708363140482988e-02 2.0228152403707365e-02 3.9291808810052217e-02 1.2964187648620895e-01 3.9291808810052217e-02 -9.5338009988695984e-03  2.9040099504483476e-02 -4.0857566096691569e-02 1.1773521923598773e-01 -4.0857566096691569e-02 4.2137686889652415e-02 2.4902698341494676e-03 1.1773521923598773e-01 2.4902698341494676e-03 -4.6818353042824654e-02  1.4808538478880369e-02 -4.2783102639327740e-02 1.1794270016632467e-01 -4.2783102639327740e-02 6.0908071989851702e-02 -1.6387867586530668e-02 1.1794270016632467e-01 -1.6387867586530668e-02 -5.0793126771995378e-02  -1.4398354729279032e-02 -2.6014198751913933e-02 1.0850968218091525e-01 -2.6014198751913933e-02 7.2403275500994665e-02 -4.8464958703081762e-02 1.0850968218091525e-01 -4.8464958703081762e-02 -3.2426928323978761e-02  -2.4589949348037821e-02 5.0798810958490610e-03 1.0511523941459387e-01 5.0798810958490610e-03 5.9469143266641079e-02 -6.7149708101258657e-02 1.0511523941459387e-01 -6.7149708101258657e-02 -4.0289872358664075e-03  6.8068301526494320e-03 8.3675663758724043e-03 6.8700933954728580e-02 8.3675663758724060e-03 6.9146994395830927e-02 -7.4744819965400611e-02 6.8700933954728580e-02 -7.4744819965400611e-02 -5.5893967936741722e-02  1.2442122772142995e-02 -3.4252282623031129e-02 -7.6551153262017736e-03 -3.4252282623031129e-02 8.8258540794096035e-02 -9.5813503816916820e-02 -7.6551153262017736e-03 -9.5813503816916820e-02 -8.5669113942443684e-02  -1.8190434318208548e-02 2.6806832163815613e-02 4.7912797084006253e-02 2.6806832163815613e-02 5.0469613097308151e-02 -9.2829728712485293e-02 4.7912797084006260e-02 -9.2829728712485293e-02 -9.5852778390945435e-03  9.2510986119590549e-02 -4.5463242324385728e-02 4.0906149599515593e-02 -4.5463242324385728e-02 -1.1143273746823125e-01 4.1843397757471618e-02 4.0906149599515593e-02 4.1843397757471625e-02 5.5326813326278673e-02  8.9930181440967427e-02 -4.6605081645694872e-02 5.3930923231305251e-02 -4.6605081645694872e-02 -1.2133197742656113e-01 5.9230989986151141e-03 5.3930923231305265e-02 5.9230989986151141e-03 6.6031277879694580e-02  1.1221107889903482e-01 -7.2251617644519109e-02 5.6534710920327066e-02 -7.2251617644519109e-02 -1.4636901333574923e-01 -3.3226377174416614e-03 5.6534710920327066e-02 -3.3226377174416614e-03 9.2995018213384115e-02  1.4359251185354160e-01 -7.4105263743712554e-02 6.1504985092746566e-02 -7.4105263743712568e-02 -1.6985330723133196e-01 1.8210530150255755e-02 6.1504985092746566e-02 1.8210530150255755e-02 1.1059399446561581e-01  1.3156979643830941e-01 -6.2398031713423958e-02 5.9778814445702474e-02 -6.2398031713423945e-02 -1.6575688000174427e-01 3.2199398847764321e-02 5.9778814445702474e-02 3.2199398847764321e-02 1.1250527338331547e-01  1.1910955206283955e-01 -4.9085399546076498e-02 4.7015124761804195e-02 -4.9085399546076505e-02 -1.6733193654956963e-01 2.4698794409557450e-02 4.7015124761804195e-02 2.4698794409557450e-02 1.1817902168153439e-01  9.2131528608002750e-02 -4.0343498845502236e-02 3.8151925156061715e-02 -4.0343498845502236e-02 -1.6157210905144992e-01 1.1694415896743918e-02 3.8151925156061715e-02 1.1694415896743918e-02 1.3053714359350813e-01  6.2848666464932354e-02 -3.7924634597484776e-02 6.7383020647456854e-02 -3.7924634597484776e-02 -1.4456450326233772e-01 -9.0663567926912818e-03 6.7383020647456854e-02 -9.0663567926912818e-03 1.3065684345146189e-01  4.7463822044594955e-02 -2.5007562318087023e-02 7.3002368475773932e-02 -2.5007562318087023e-02 -5.9722196763813219e-02 -7.6124086601772447e-03 7.3002368475773932e-02 -7.6124086601772447e-03 1.8912424711206549e-02  1.5913336021666194e-01 5.3971902812278191e-02 -3.5105752480506784e-02 5.3971902812278191e-02 -1.4161957046331036e-01 -7.6874765325668476e-02 -3.5105752480506784e-02 -7.6874765325668490e-02 4.3980084519705490e-02  1.3024222676048214e-01 1.3743667630472919e-01 -1.3250058369690636e-02 1.3743667630472919e-01 -1.0244899681021311e-01 -8.3461820752453814e-02 -1.3250058369690636e-02 -8.3461820752453814e-02 4.5817479702744184e-02  4.1570969325612384e-02 1.6322811465937356e-01 1.5299081652637573e-02 1.6322811465937362e-01 -3.9440523901913188e-02 -7.9535616080162477e-02 1.5299081652637559e-02 -7.9535616080162477e-02 6.7143005161306460e-02  -5.3448583621173162e-02 1.6031116453384708e-01 3.3470182369551120e-02 1.6031116453384708e-01 5.9005457478788374e-02 -7.6283076052933954e-02 3.3470182369551120e-02 -7.6283076052933954e-02 6.4868403124742319e-02  -1.1342493954843227e-01 9.9827233985488026e-02 5.3160093404610399e-02 9.9827233985488026e-02 9.4277684757006971e-02 -7.2071236265170494e-02 5.3160093404610399e-02 -7.2071236265170494e-02 7.9625091204707024e-02  -1.2773524630827751e-01 3.7093689854369137e-02 7.5854071743632595e-02 3.7093689854369137e-02 1.2662787089388586e-01 -5.2620986256954973e-02 7.5854071743632595e-02 -5.2620986256954973e-02 5.7531697801941728e-02  -1.0209110923208438e-01 -3.8811008620724112e-02 9.1262506126014400e-02 -3.8811008620724112e-02 1.0399472083634732e-01 -3.0474449499900042e-02 9.1262506126014400e-02 -3.0474449499900042e-02 4.1239160903672890e-02  -9.6036925162074266e-02 -5.9123722775669872e-02 7.8236300614738311e-02 -5.9123722775669872e-02 7.3744842221264734e-02 -2.4040190451153406e-02 7.823630