<?xml version="1.0"?>
<VTKFile type="UnstructuredGrid"  version="0.1"  >
<UnstructuredGrid>
<Piece  NumberOfPoints="1268" NumberOfCells="4847">
<Points>
<DataArray  type="Float64"  NumberOfComponents="3"  format="ascii">1.994716987487452 0.01317707561264319 -1.202466945460223e-11  1.374072606111497 -0.08614134488653273 -5.388997575085332  -1.285941478930618 0.1916557790035214 -5.691288663606836  -1.59032616235459 -0.4515196446136259 1.626303258728257e-17  0.4950030257755884 2.521650519233041 -5.495391852657774  -0.4107718940653654 -2.429115409112172 -5.58531208084276  -0.9314707163843408 -3.006923447963563 4.87890977618477e-17  1.161824811771535 2.948440156756841 -3.391384395534658e-14  2.146749234505421 0.002696741478414759 -0.5615078450779066  2.330988047973839 -0.000873250973709995 -1.113141311680313  2.540713632977715 -0.1384292375506191 -1.637427654548237  2.645241452520652 -0.2872312815961211 -2.18637082393926  2.504842461151312 -0.2752146673621067 -2.746850782899552  2.287876352721185 -0.2088259978706829 -3.283011632728322  2.137771360922677 -0.2093380261300688 -3.844996501809416  1.970142554575494 -0.2193701374385486 -4.401638277082749  1.701580801829277 -0.1696632515169769 -4.915066532844666  1.398049690886424 0.4419377546899956 -5.387643705321969  1.183972204621215 0.9208338616597355 -5.413149504812257  0.7621482426349403 1.234356207118232 -5.461782499987256  0.2539805730796886 1.370727420898931 -5.519751404145364  -0.2689415860383004 1.319053689498898 -5.578906487138381  -0.7357170559581984 1.076180709179107 -5.631191713357971  -1.086003096318238 0.6812820615514149 -5.669884670156524  -1.65706961757681 -0.5275128747266272 -0.6240725009925172  -1.829082870387909 -0.8347372240299333 -1.153553189134448  -2.030635262011336 -1.097965926806997 -1.693320688638939  -2.148557703924963 -0.9683820133813712 -2.295450526931833  -2.119047321408695 -0.7521727279271558 -2.890676896601294  -1.972500555455803 -0.7106310836492745 -3.509380855831461  -1.885028119342598 -0.4902108162504233 -4.093718100793141  -1.832050776792238 -0.1313823297003599 -4.617858136599065  -1.636180550340053 0.1151199882480144 -5.165527944859976  -1.540434086810702 0.1014447694855235 -7.644826989049428e-17  -1.339902801239663 0.6191128040412099 2.218327606354497e-17  -0.9949589579071262 1.053322092476122 2.12059320661159e-17  -0.5243975458638882 1.346285776146202 7.754217898549941e-16  0.01399251627036286 1.481823287560149 3.252316763596149e-17  0.5696211504784076 1.47677978548424 -7.207855520904863e-17  1.105448032340458 1.331487337928338 1.951563910473908e-16  1.561367740818086 1.018090979386763 -2.179459114756194e-16  1.860006992193919 0.551530302300456 1.369433074745588e-16  -0.152869286718376 2.506583809965366 -5.568804938302105  -0.7781210310064858 2.335338381675429 -5.639249366957451  -1.340550096787874 2.011723800088065 -5.702178028336585  -1.803922993566052 1.555830170950866 -5.753534898075912  -2.144678763029901 1.000979069722826 -5.790734833138769  -2.346903237737564 0.3811866585909049 -5.812061421922149  -2.406990243842066 -0.2684488461825228 -5.817196438260218  -2.318433628103212 -0.9144163570965761 -5.805488779558074  -2.059391262210163 -1.511004864267824 -5.774580158166454  -1.615755841275718 -1.983465489741105 -5.72306417450185  -1.043145925381342 -2.287058241276404 -5.657361969815248  -0.6986882361605687 -2.420627649803484 -5.024556445072709  -0.8272574030199392 -2.685291244074475 -4.476216325063944  -0.8113210073272845 -3.118860027310894 -4.01596683617901  -0.7618552434953355 -3.481598098596065 -3.504026669625047  -0.7509882165597778 -3.609083979854663 -2.886473298216772  -0.7986167670519319 -3.732483084086931 -2.268445488219849  -0.8276969497603353 -3.810997815301134 -1.64593496945388  -0.7425506523451623 -3.557242155569485 -1.078322423839125  -0.7147449622328144 -3.21189056194362 -0.5511080601316157  -1.482234509376526 -2.778582553401298 -5.854479658363816e-16  -1.970737176894139 -2.437284655419533 2.764697292186607e-16  -2.362818572203899 -1.988727212877528 2.439101268600111e-16  -2.642390785384022 -1.462244173776716 5.051059276813266e-16  -2.812149102113852 -0.89052423419162 2.276851973687203e-16  -2.877946727920729 -0.2976446157883296 -1.219909928720168e-16  -2.842947107925845 0.2978601752284433 4.065446096494693e-17  -2.70313036896374 0.8776122116387211 -5.041496169361013e-16  -2.452324348076021 1.418519584933707 4.379274460317988e-16  -2.098265626135573 1.898294456130726 1.951060033519619e-16  -1.658391347368763 2.301023318502569 -1.789574489620802e-16  -1.154148079923361 2.619757341302747 -2.081203863085907e-15  -0.6042202207747882 2.851073703499478 -3.577841418755692e-16  -0.02416138323675775 2.990516581461941 4.065982498622179e-16  0.5710641261211448 3.028216945076794 -1.46882551317968e-16  0.6414151130412097 2.696325287154043 -4.983333021490838  0.771852374565919 2.778456367279237 -4.445188759107248  0.8805845204306011 2.73078881179073 -3.897720120696569  0.9481597620953167 2.69798349057175 -3.343104559074628  0.9815370707090804 2.778214865778854 -2.789250505759619  1.013475345489448 2.861817704396183 -2.235671116027784  1.055849759321274 2.898356228459238 -1.677594140621302  1.093646323460014 2.92793989028903 -1.118725590781912  1.124098871622056 2.957526991478201 -0.5594169689370629  0.2477015793419729 -2.415655802610486 -5.510682951113449  0.8844491790088972 -2.245867158009595 -5.438931443942415  1.464891069119211 -1.932330028996181 -5.373934600293736  1.955087092649627 -1.489613175355717 -5.319502697776375  2.318355026965356 -0.937054784961175 -5.279744576064058  2.524994411863564 -0.307899182343253 -5.257941630215678  2.574632820450045 0.3531084349228537 -5.254020561031156  2.465743861849647 1.006614152640354 -5.268052816559671  2.183897076015212 1.604484044160622 -5.301550147358176  1.722560240631265 2.07491696755195 -5.35506775502591  1.13806318635062 2.378906583716481 -5.422118662603529  1.742182153284979 2.73179858498085 5.854691697147836e-16  2.262480931380501 2.395264875892136 -2.601681534737615e-16  2.698000706832733 1.954727370266727 -3.903113804560263e-16  3.021530388777258 1.426473918441798 1.707421408502106e-16  3.223363606607101 0.8405687193648443 -2.844806418042028e-16  3.305434793487241 0.2261994274297442 -4.472186606099012e-16  3.269241566985055 -0.3926051469820059 3.171555149681837e-16  3.113478077610213 -0.9924495549400153 3.510830505762065e-16  2.840400132149515 -1.548806515270482 -1.707368614952523e-16  2.466120284856568 -2.042983582774378 9.732831365154574e-17  2.008125599488538 -2.460814027017948 -3.577575055983979e-16  1.482521285196868 -2.789563899556613 -4.886146623064541e-17  0.9057866143556688 -3.01678997208197 -2.439392613813594e-16  0.2964958724913082 -3.130681163554852 3.414395345104792e-16  -0.32338307292875 -3.126978161260848 2.926910878106614e-16  -1.29067345658392 -0.3506098753383553 -5.690421630247788  -1.068897680254163 -0.8451623229646739 -5.663999894259847  -0.6782440885714781 -1.219621806060448 -5.6187489875115  -0.168757542531344 -1.390394566692369 -5.560546895724229  0.3611301401510615 -1.294122251639114 -5.500717901478111  0.8191548613516448 -1.005201308695582 -5.449538098373106  1.16817203978903 -0.5892762115769014 -5.411042670828763  1.960898302630318 -0.551652302616722 -8.131516293641286e-17  1.751009740180289 -1.077278642631261 7.445724005953314e-16  1.394016468000002 -1.516729095803803 1.136104663605282e-15  0.9227767039454898 -1.830301465573364 3.434443593283319e-16  0.3780412068884804 -1.984007749105097 8.617772484356591e-16  -0.1885780664025548 -1.977994130030172 2.357202029695971e-16  -0.7327557451871473 -1.821291124380143 1.942410916395698e-17  -1.191068596016128 -1.491774666596192 2.975009434367945e-16  -1.480405544894888 -1.006855825633415 6.954512630084263e-16  -1.812414118534285 0.2561131097252937 -2.664867827914479  2.421751940242729 0.6298287624476981 -1.933377861698098  0.7556418177061754 1.42269463362527 -4.617654324361507  0.003134751711410342 1.574821943356493 -0.9318675177876981  1.015098001669947 1.51699057942374 -0.9441494884276413  0.6193243625380082 1.764115149411371 -1.862230514405671  -0.4757031201037318 1.549728101933577 -1.958273018773558  0.1126459993007786 1.698838152590054 -2.957602797129454  -0.3405660022430232 1.569615851499001 -4.678135257405353  1.818199099779932 0.7365610114574719 -3.763003518505052  -0.9541815370276669 1.23451227632913 -2.875526912859068  -1.269464226480212 1.016489154450913 -4.672047638709048  1.301562892980348 1.557566760682666 -2.802482532053872  -0.7813756340336595 1.414221906310649 -3.725761628685261  -1.58370798409762 0.5643609111372817 -3.581008460136619  -0.988817348255397 1.158392548936659 -1.014254585170146  -1.607700527190565 0.2800106654898483 -1.030081240453645  -1.388203055800784 0.7951310659851955 -1.943712885648593  0.8261955720421881 1.570157055202129 -3.620947225245673  1.681455131778566 1.410849015379531 -1.876189895849114  1.878739160554727 0.943024132521903 -0.9866418074548234  2.103426639579445 1.000735947836943 -2.593434794762663  1.62623803052506 0.6468498306152269 -4.727220189271843  -1.882943490361709 -0.1546739965127431 -1.761716647663214  0.05868355051519467 1.656538949473053 -3.863342338366238  2.465845305360337 0.2632819454094029 -2.663569745038379  1.994842599423799 0.5019775153043848 -0.4779055074204815  2.1671824130763 0.4980244878585698 -1.027636182799239  1.710213566460811 0.9718796190568162 -0.4957578884333736  1.845584590132108 0.2253887364997403 -4.583879812097906  1.579035044615276 0.2924902970866011 -5.101748935835201  1.409777182251665 0.7868327264427526 -5.07202467441607  -1.039178737375989 1.089168173550246 -5.170746090958521  -1.377687418630729 0.6683636420802941 -5.233117919580046  -1.641402128985454 0.4875654733502939 -4.648722230221863  -1.765467255797776 -0.2695484060062747 -1.079683539430899  -1.617858736076732 -0.08318463488274264 -0.5123563299218489  -1.474019211051276 0.4496529111656123 -0.5150171376928306  2.417677350191343 0.3274903893149403 -1.506992657970159 
[...]
<PointData  Tensors="strain"> 
<DataArray  type="Float64"  Name="strain"  NumberOfComponents="9" format="ascii">-3.4733659903806349e-02 -2.0714539123208725e-03 -7.7745179459626002e-02 -2.0714539123208725e-03 2.1064300368433381e-03 1.5837385602559095e-02 -7.7745179459626002e-02 1.5837385602559095e-02 4.9284770119420368e-02  -7.8459075687323312e-02 2.1768521874678783e-02 7.0068378513724910e-02 2.1768521874678787e-02 1.2816835047726013e-01 -3.0329593441040706e-02 7.0068378513724910e-02 -3.0329593441040706e-02 -1.7487394091883227e-02  -6.9316936934934278e-02 3.0476707205181221e-02 -7.1870602710298478e-02 3.0476707205181214e-02 1.2997352176834565e-01 2.8995762458223877e-02 -7.1870602710298478e-02 2.8995762458223884e-02 -2.7320658864287896e-02  -3.9504046847016569e-02 -1.6391419549803114e-02 6.8685954054029011e-02 -1.6391419549803114e-02 -1.1055998480916608e-03 -3.9880202226462234e-02 6.8685954054029011e-02 -3.9880202226462234e-02 5.9480219500828942e-02  3.8539005593151723e-02 -3.1978866695179619e-03 1.7438252901067139e-02 -3.1978866695179624e-03 -3.1637277862518604e-02 1.0551222697019970e-02 1.7438252901067139e-02 1.0551222697019970e-02 -3.6533792551425880e-03  8.4658628112444928e-02 8.6734529220913372e-03 -1.7444935516698290e-02 8.6734529220913337e-03 -5.7553588699605744e-02 -2.2428324070278002e-02 -1.7444935516698290e-02 -2.2428324070278002e-02 -1.4883602192116353e-02  6.9545564487739926e-03 1.4799911267234140e-02 -2.5728969851178399e-02 1.4799911267234142e-02 -7.6338971475013260e-03 3.3904468127885348e-02 -2.5728969851178399e-02 3.3904468127885348e-02 2.0336298421851440e-03  1.0216593283461283e-03 9.1866528764623402e-03 1.6178514435534717e-02 9.1866528764623402e-03 1.5336214618385175e-02 -1.4972675847488412e-02 1.6178514435534717e-02 -1.4972675847488412e-02 -1.5136767217200399e-02  -8.8567285857582043e-02 -1.4312432872920375e-02 -4.0648806888342347e-02 -1.4312432872920375e-02 5.3402484307802853e-02 -1.6321667178242315e-02 -4.0648806888342347e-02 -1.6321667178242315e-02 5.1226679751055444e-02  -1.0164891945403493e-01 -1.7728653656759956e-02 -4.7193292435903242e-02 -1.7728653656759959e-02 8.2163852308638277e-02 -1.1059533000275198e-02 -4.7193292435903242e-02 -1.1059533000275198e-02 4.3047080667396917e-02  -1.2117892085745875e-01 -5.8323092856581403e-03 -4.0884891629636141e-02 -5.8323092856581368e-03 1.0024648086547666e-01 -2.1522215545956362e-04 -4.0884891629636141e-02 -2.1522215545956308e-04 5.0708688957370865e-02  -1.3366626152961766e-01 1.1667050783110179e-02 3.8427899231133619e-03 1.1667050783110177e-02 9.8962913970229036e-02 -1.8555961357893475e-02 3.8427899231133619e-03 -1.8555961357893475e-02 6.8032149129210157e-02  -1.1882654914260901e-01 -6.4129525607294589e-04 4.8110153794859049e-02 -6.4129525607294568e-04 1.3271706112174353e-01 -2.8489949910589400e-02 4.8110153794859049e-02 -2.8489949910589400e-02 2.3323235753093925e-02  -1.1236330108121584e-01 -2.1768536119187023e-02 3.9916308808418552e-02 -2.1768536119187023e-02 1.5526111076873442e-01 4.9931934099163122e-04 3.9916308808418552e-02 4.9931934099163122e-04 -5.3569445286259553e-03  -1.1605042648923762e-01 -8.4193395938464387e-03 3.5463540697025384e-02 -8.4193395938464421e-03 1.6479426862935767e-01 7.6755632500322658e-05 3.5463540697025384e-02 7.6755632500322482e-05 -9.5188969048746741e-03  -1.0486231080850893e-01 -3.2902409186345663e-03 5.0154850972907492e-02 -3.2902409186345663e-03 1.4910375061223338e-01 -2.0157938868577658e-02 5.0154850972907498e-02 -2.0157938868577658e-02 -8.3611727378264788e-03  -9.7676978742462992e-02 1.2935809409278786e-02 6.9545761419383012e-02 1.2935809409278786e-02 1.3898867376737062e-01 -2.4116119770363511e-02 6.9545761419383012e-02 -2.4116119770363511e-02 -2.8405493539943763e-03  -7.7021369000897344e-02 -5.4589737297167859e-02 8.1827992105035968e-02 -5.4589737297167859e-02 1.0277594823641828e-01 8.5865808389554480e-04 8.1827992105035968e-02 8.5865808389554426e-04 8.4408640462250422e-03  -1.8595225890767637e-02 -1.1244503003897124e-01 5.3011282631963745e-02 -1.1244503003897127e-01 3.8499799201261176e-02 2.6962614799630049e-02 5.3011282631963759e-02 2.6962614799630049e-02 1.2697725024524688e-02  6.2627849875165356e-02 -8.0191807894767014e-02 2.9776282310834849e-02 -8.0191807894767014e-02 -6.0785150962763990e-02 4.5878142551148630e-02 2.9776282310834835e-02 4.5878142551148630e-02 2.3411579424238289e-02  1.0468174566997988e-01 -2.2208764509302703e-02 1.2433539069996105e-02 -2.2208764509302703e-02 -9.1788938340781584e-02 6.1843391986372113e-02 1.2433539069996103e-02 6.1843391986372113e-02 1.5034625328475253e-02  8.8415418778969093e-02 4.3822617069248358e-02 -1.3591151555703321e-02 4.3822617069248365e-02 -8.1212478930512977e-02 8.0569583216261675e-02 -1.3591151555703325e-02 8.0569583216261675e-02 2.3964044064922099e-02  3.0564488758826943e-02 8.2234920125240654e-02 -3.7476516491800699e-02 8.2234920125240654e-02 -1.9960151251537388e-03 7.1493465291520675e-02 -3.7476516491800699e-02 7.1493465291520689e-02 -2.2467731377770216e-03  -4.0038807108365417e-02 7.5075477920181294e-02 -5.6485092693715183e-02 7.5075477920181294e-02 6.3442269125164957e-02 5.5985802442487839e-02 -5.6485092693715183e-02 5.5985802442487839e-02 5.0345692786932413e-03  -8.8418048342815761e-02 2.9086137955377550e-03 3.3167941485084902e-02 2.9086137955377550e-03 4.1953997957980299e-02 -6.2775132484361648e-04 3.3167941485084909e-02 -6.2775132484361670e-04 6.0586086340961298e-02  -9.0508961565586674e-02 -2.8811142136414150e-03 3.5784957293355450e-02 -2.8811142136414150e-03 7.9357246347262489e-02 -1.0611311954083087e-02 3.5784957293355450e-02 -1.0611311954083090e-02 2.8439987177522903e-02  -1.1032228264550377e-01 -8.5735270574088876e-03 3.1589287194611897e-02 -8.5735270574088876e-03 8.9405365052737454e-02 -4.2198981388764838e-03 3.1589287194611897e-02 -4.2198981388764847e-03 4.5221387171557208e-02  -1.3003130605471108e-01 -7.5830335620413808e-03 7.4011470342855660e-03 -7.5830335620413773e-03 1.0704295266661337e-01 1.1643615443896875e-02 7.4011470342855669e-03 1.1643615443896874e-02 5.4002074483000422e-02  -1.2701547241732919e-01 4.3093480343450044e-03 -2.7322670115127342e-02 4.3093480343450105e-03 1.2046845312756214e-01 3.1743286424128346e-02 -2.7322670115127342e-02 3.1743286424128339e-02 4.0576756755216735e-02  -1.1409145408169828e-01 -1.7239076548769928e-02 -2.8616698577096530e-02 -1.7239076548769924e-02 1.3209056678325257e-01 4.1014283238681108e-02 -2.8616698577096530e-02 4.1014283238681108e-02 1.5358759528325931e-02  -1.1748922496206517e-01 -1.1600238084270372e-02 -2.4840985562171156e-02 -1.1600238084270366e-02 1.3014956260393234e-01 4.9199780712209658e-02 -2.4840985562171156e-02 4.9199780712209658e-02 2.1918772812442658e-02  -1.2975838939583645e-01 1.6584307629642411e-02 -3.2150584333292986e-02 1.6584307629642414e-02 1.3038722845032621e-01 3.4014960903020260e-02 -3.2150584333292986e-02 3.4014960903020260e-02 3.7068156345609109e-02  -1.0339455469368922e-01 3.3549294592715134e-02 -6.6191724239600819e-02 3.3549294592715134e-02 1.2047559202607143e-01 4.4052489850581196e-02 -6.6191724239600819e-02 4.4052489850581196e-02 2.0726505324034854e-02  -6.2775219275363683e-02 8.9488734202134122e-03 6.0514662400631344e-02 8.9488734202134122e-03 3.0921881792501625e-03 -3.6438161604485042e-02 6.0514662400631337e-02 -3.6438161604485042e-02 8.0867300428018291e-02  -4.1596630254391961e-02 1.9472583469648301e-02 4.7691003204259202e-02 1.9472583469648305e-02 -1.2768679526206955e-02 -5.3743440154504565e-02 4.7691003204259202e-02 -5.3743440154504565e-02 7.3257361924082096e-02  -3.2068150401225230e-02 3.9585422814396934e-02 3.2769355297020950e-02 3.9585422814396934e-02 -2.9923733702216185e-02 -5.7169833427491393e-02 3.2769355297020950e-02 -5.7169833427491407e-02 8.2881344108637234e-02  -9.1039474175510261e-03 2.1130371236927587e-02 9.6405702585948792e-03 2.1130371236927587e-02 -4.0831927867633871e-02 -6.5651632685451281e-02 9.6405702585948792e-03 -6.5651632685451281e-02 6.8822336026724329e-02  3.9371656978190185e-04 1.4563743106111721e-02 1.0402583570098337e-03 1.4563743106111721e-02 -6.3153464916673313e-02 -6.6987860036560362e-02 1.0402583570098337e-03 -6.6987860036560362e-02 8.5396523383305209e-02  5.8421664495640234e-04 -3.4551158058423364e-03 -2.5561650361846228e-02 -3.4551158058423364e-03 -5.7805412749591445e-02 -6.1588583203518975e-02 -2.5561650361846228e-02 -6.1588583203518975e-02 7.8602239211607028e-02  1.4991221426234344e-03 -1.8810436012289322e-02 -3.9032570007522534e-02 -1.8810436012289322e-02 -5.1872348375710163e-02 -5.6842678930434043e-02 -3.9032570007522534e-02 -5.6842678930434043e-02 6.8394912036496877e-02  -1.8367795455129617e-02 -2.6985304624733877e-02 -7.0761356093554301e-02 -2.6985304624733877e-02 -2.2544336038523322e-02 -2.9324750268351043e-02 -7.0761356093554301e-02 -2.9324750268351043e-02 6.0650713528067758e-02  -3.9996689349223943e-02 -2.1575512084055799e-02 -8.2701392304134924e-02 -2.1575512084055799e-02 -1.2116578458043287e-02 2.8722580904122583e-03 -8.2701392304134924e-02 2.8722580904122583e-03 7.3375557730268007e-02  2.6483781341759983e-02 9.7220631297469003e-03 1.3631924227165635e-02 9.7220631297469003e-03 -2.6685932628396383e-02 2.2295557222953330e-02 1.3631924227165635e-02 2.2295557222953330e-02 2.9959296449121515e-03  2.9800732437648601e-02 2.2361520136993877e-02 1.3497297265081894e-02 2.2361520136993877e-02 -3.4037868163480742e-02 2.7085390673469694e-02 1.3497297265081894e-02 2.7085390673469694e-02 8.8114609097944170e-03  -8.4917140527523086e-03 2.2029338091867804e-02 1.6732875928999133e-03 2.2029338091867804e-02 -4.5102984151127040e-03 2.8001579153837997e-02 1.6732875928999128e-03 2.8001579153837997e-02 1.4852385344284983e-02  -2.0971606927268047e-02 2.9702742208264313e-02 -2.6250823600009719e-02 2.9702742208264313e-02 3.4095441750139975e-02 2.0290791638636636e-02 -2.6250823600009719e-02 2.0290791638636636e-02 -8.5796834680815053e-03  -3.0431198949187541e-02 1.8118706230471644e-02 -2.1514103748114521e-02 1.8118706230471644e-02 4.8465664160533280e-02 1.5228615461834157e-02 -2.1514103748114521e-02 1.5228615461834157e-02 -1.3328968931449615e-02  -2.7291949401400849e-02 1.0645394216963271e-02 -1.6545157671878318e-02 1.0645394216963266e-02 3.6128344591386738e-02 4.3884732850773701e-03 -1.6545157671878322e-02 4.3884732850773640e-03 -6.3574301383824772e-03  -2.2345914340374785e-02 -4.1924108989316840e-03 -2.1960892260384526e-02 -4.1924108989316892e-03 3.3131854823445647e-02 -8.4864921923462761e-03 -2.1960892260384526e-02 -8.4864921923462761e-03 -8.1799264023465629e-03  -1.8951880706164166e-02 -2.6987633546650694e-02 -1.4275533509141174e-02 -2.6987633546650694e-02 3.9559245299829557e-02 -1.0670720197564451e-02 -1.4275533509141174e-02 -1.0670720197564451e-02 -1.6692675884530047e-02  -3.0346480838171108e-02 -2.6133605753534447e-02 -2.9958331140728021e-02 -2.6133605753534447e-02 2.1462486608839204e-02 1.4382480671896004e-02 -2.9958331140728021e-02 1.4382480671896002e-02 1.1724526311817130e-02  2.6271439203114685e-02 -3.1343192683533088e-03 -4.1822258957977650e-02 -3.1343192683533079e-03 -3.9967504822555067e-02 9.0120836926312342e-03 -4.1822258957977657e-02 9.0120836926312342e-03 1.5686697426121915e-02  6.2629063442954158e-02 9.8044226371764073e-03 -3.8746779128381099e-02 9.8044226371764090e-03 -5.1047839896306305e-02 -3.0662520430240935e-02 -3.8746779128381093e-02 -3.0662520430240935e-02 -2.7223701182688877e-03  9.1434226115383516e-02 -1.7600561921214390e-02 -2.6721899092623035e-02 -1.7600561921214387e-02 -9.1915099324930444e-02 -4.7812381745415335e-02 -2.6721899092623035e-02 -4.7812381745415335e-02 2.4215306494371144e-02  8.2333493335104951e-02 -1.6051054191018224e-02 -2.8379704230034015e-02 -1.6051054191018214e-02 -6.0799296108866856e-02 -7.7440824714905487e-02 -2.8379704230034015e-02 -7.7440824714905487e-02 3.7183496108774915e-03  6.5278234295847073e-02 -5.6934480410311284e-03 -1.2828942002138771e-02 -5.6934480410311310e-03 -3.7631980344285651e-02 -5.1588166642032522e-02 -1.2828942002138769e-02 -5.1588166642032529e-02 -1.6772375970688980e-02  6.2152258344629570e-02 4.4278455573421817e-03 -1.4072719476150939e-03 4.4278455573421843e-03 -4.7054073944972921e-02 -3.1711510013558805e-02 -1.4072719476150985e-03 -3.1711510013558819e-02 -7.6376759387283685e-03  4.9518231824909123e-02 -8.1555829625021212e-03 -1.6387874859448821e-02 -8.1555829625021212e-03 -6.2160978547640397e-02 -2.2778719075470445e-02 -1.6387874859448825e-02 -2.2778719075470445e-02 2.1199138154197078e-02  3.4615966677676482e-02 -1.7813417114687022e-02 -1.2672853211207490e-02 -1.7813417114687022e-02 -5.2044003408602560e-02 -8.7917703498671153e-03 -1.2672853211207490e-02 -8.7917703498671153e-03 2.2756276583063804e-02  2.8427748293668256e-02 -9.7128465308007218e-03 -6.5891491333794827e-04 -9.7128465308007218e-03 -3.6449464690553109e-02 4.0393918324374894e-03 -6.5891491333794848e-04 4.0393918324374894e-03 9.5944886894400744e-03  1.4060142631586866e-02 -3.3563903344506513e-02 1.4332443910809385e-02 -3.3563903344506513e-02 -1.9922386226785993e-02 3.6930312253158175e-02 1.4332443910809385e-02 3.6930312253158175e-02 1.0923918448668869e-02  1.3813483728040593e-02 -2.3755167986792815e-02 -8.9499301741722999e-03 -2.3755167986792815e-02 -3.7987635437727332e-02 5.8348398714676092e-02 -8.9499301741722999e-03 5.8348398714676092e-02 3.4818596670595198e-02  8.5264670172739230e-03 7.5440394855053683e-03 -1.6615496873578807e-02 7.5440394855053683e-03 -1.0512061452528821e-02 3.1103213171397585e-02 -1.6615496873578807e-02 3.1103213171397585e-02 2.2208047226200947e-03  6.1073444969176657e-03 4.1928667307619422e-03 -1.2637699003013838e-02 4.1928667307619422e-03 -4.8315588435432740e-03 3.5187184094333371e-02 -1.2637699003013841e-02 3.5187184094333371e-02 -1.0982001683085979e-03  1.7294084152814200e-02 -4.6116716694655675e-03 -7.3752300347943766e-03 -4.6116716694655675e-03 -1.4452527371790664e-02 2.8634064072649183e-02 -7.3752300347943766e-03 2.8634064072649183e-02 -3.5366353399038700e-03  1.6776529266460661e-02 -9.8850771928363761e-03 4.9079709487178363e-03 -9.8850771928363761e-03 -1.2114582161917999e-02 2.8996428849692970e-02 4.9079709487178363e-03 2.8996428849692970e-02 -3.9653327491652544e-03  1.3764107174919155e-02 -3.8791137342028465e-03 1.4443405148486492e-02 -3.8791137342028465e-03 -7.0067507506822013e-03 3.2833087825419500e-02 1.4443405148486492e-02 3.2833087825419500e-02 -5.9667948551017855e-03  2.2513712134794917e-02 -2.5601071026643512e-03 4.5821180608811530e-03 -2.5601071026643512e-03 1.5915895648467967e-03 2.6689757756942992e-02 4.5821180608811539e-03 2.6689757756942992e-02 -2.3568458287018420e-02  2.7778882328130843e-02 -1.1951333395034855e-02 1.0231882999957890e-02 -1.1951333395034855e-02 4.0042034318786730e-03 1.2168724553817458e-02 1.0231882999957890e-02 1.2168724553817458e-02 -3.0390256148815520e-02  1.1498297082216903e-02 -1.6122656114717342e-02 1.9731585156478295e-02 -1.6122656114717342e-02 7.8497463178791409e-03 1.6378082899361934e-02 1.9731585156478295e-02 1.6378082899361934e-02 -1.7490282381657240e-02  7.6524854929222313e-03 -1.9556701693279634e-02 1.7835660982782681e-02 -1.9556701693279634e-02 2.0413376080559958e-02 4.5852016271207482e-03 1.7835660982782681e-02 4.5852016271207482e-03 -2.5996680116084310e-02  3.1872033625662197e-03 -1.6335771550765568e-02 2.1008511243207729e-02 -1.6335771550765568e-02 2.4484360112063668e-02 4.8783613740469283e-04 2.1008511243207729e-02 4.8783613740469283e-04 -2.5728632327511013e-02  -5.9283934071477067e-03 -8.9034274860026567e-03 1.8584331448517843e-02 -8.9034274860026567e-03 2.8336147547052635e-02 -1.7084803224289105e-03 1.8584331448517843e-02 -1.7084803224289105e-03 -2.0785008221592918e-02  -9.0041367050797926e-03 1.7715772751894605e-03 2.0541511114148814e-02 1.7715772751894605e-03 2.1655180180974582e-02 -5.0267054645446122e-03 2.0541511114148814e-02 -5.0267054645446122e-03 -1.1224666337402723e-02  4.2254091534925760e-04 2.1501800889943529e-03 1.3993321042370397e-02 2.1501800889943529e-03 2.2681634751061656e-02 -9.4012239935728509e-03 1.3993321042370397e-02 -9.4012239935728527e-03 -2.2133866720697320e-02  5.5034184256078601e-03 -1.1122291090434330e-02 -5.2423171673820230e-03 -1.1122291090434330e-02 2.5657211926663193e-02 -1.5043908440565029e-02 -5.2423171673820230e-03 -1.5043908440565029e-02 -2.9894262709587560e-02  -4.8133384164395967e-03 1.1596916590835754e-02 1.1015029721453778e-02 1.1596916590835754e-02 1.7370599191819585e-02 -1.1858010180128420e-02 1.1015029721453778e-02 -1.1858010180128420e-02 -1.1420439718981610e-02  1.8351753695425004e-02 -1.3979204137898972e-02 1.3727543026769788e-02 -1.3979204137898972e-02 -2.8826369346243309e-02 9.6546041685819459e-03 1.3727543026769788e-02 9.6546041685819442e-03 1.2498175978849205e-02  2.8284140004298082e-02 -1.2393988025782529e-02 1.5972573052064811e-02 -1.2393988025782529e-02 -3.4977264531085323e-02 9.9408604222895442e-04 1.5972573052064811e-02 9.9408604222895377e-04 8.9118178883052287e-03  3.6678367918962701e-02 -3.0294656553680775e-02 1.6560443754484934e-02 -3.0294656553680775e-02 -5.1954249100051829e-02 -1.2083259425084479e-03 1.6560443754484934e-02 -1.2083259425084479e-03 2.1850817371132519e-02  5.1713890595424139e-02 -2.8002949265458262e-02 2.0375263497734063e-02 -2.8002949265458259e-02 -7.1475741435765905e-02 9.2110107383267074e-03 2.0375263497734063e-02 9.2110107383267092e-03 3.1190548677540821e-02  4.4968719916161214e-02 -2.7325793546481875e-02 1.6372726186727211e-02 -2.7325793546481871e-02 -6.7796989425762066e-02 1.0907821797819310e-02 1.6372726186727211e-02 1.0907821797819309e-02 3.3117720332774388e-02  3.8586840800802054e-02 -1.8176348206116778e-02 8.8242740407522644e-03 -1.8176348206116778e-02 -5.9758571666750422e-02 7.7381788402915751e-03 8.8242740407522644e-03 7.7381788402915751e-03 2.7979091201199697e-02  2.4697741943095330e-02 -1.3946111056288501e-02 1.7606372036144495e-03 -1.3946111056288501e-02 -4.4697901324834255e-02 3.5246677892976047e-03 1.7606372036144495e-03 3.5246677892976047e-03 2.3430304924645134e-02  1.4438233059346554e-02 -1.3475376712717124e-02 1.0646296580126308e-02 -1.3475376712717124e-02 -2.6326649839516957e-02 -8.2297528643919208e-03 1.0646296580126308e-02 -8.2297528643919208e-03 1.3103146984492210e-02  1.5098450384711064e-02 2.0622540016265057e-03 2.5039051908204643e-02 2.0622540016265057e-03 -6.3308415188419905e-03 4.5104229119218783e-03 2.5039051908204643e-02 4.5104229119218775e-03 -7.8893002225465993e-03  5.8889245505039919e-02 3.1407120702417614e-02 -1.0918294172371645e-02 3.1407120702417621e-02 -4.4931845027263516e-02 -2.3862490207501013e-02 -1.0918294172371643e-02 -2.3862490207501013e-02 -6.8974574024481851e-03  4.0369199764115682e-02 8.2758380044177515e-02 1.6739437743842244e-02 8.2758380044177515e-02 -1.6792564842481150e-02 -3.5021798583576472e-02 1.6739437743842241e-02 -3.5021798583576472e-02 -6.0764580945337765e-03  1.6972232506869727e-02 7.0802323957943766e-02 3.0092164171925044e-03 7.0802323957943766e-02 -1.1279151379129135e-02 -2.1979707989599234e-02 3.0092164171925044e-03 -2.1979707989599234e-02 3.5846536715603413e-03  -3.3878784170316437e-02 5.9511693292419302e-02 2.5237218954959457e-02 5.9511693292419288e-02 3.7923021647366197e-02 -2.0433115742587920e-02 2.5237218954959457e-02 -2.0433115742587916e-02 5.9777512922602914e-03  -4.2938218093258484e-02 3.2682669500985598e-02 1.6325913440995456e-02 3.2682669500985598e-02 3.7552605335759007e-02 -1.6581355302138018e-02 1.6325913440995456e-02 -1.6581355302138018e-02 1.1282484376246129e-02  -3.1241060402143854e-02 1.5937753891406604e-02 1.3128543391612972e-02 1.5937753891406604e-02 4.1133214594908457e-02 3.4432313994676615e-04 1.3128543391612979e-02 3.4432313994676658e-04 -7.4939825248469564e-03  -2.6156008742158801e-02 -8.1080215559033273e-04 1.1848942129691559e-02 -8.1080215559033197e-04 3.1920478577458014e-02 -7.3958240058711320e-04 1.1848942129691559e-02 -7.3958240058711320e-04 -4.6742781012937924e-03  -2.3169426933416951e-02 -8.6464145537217506e-03 1.5188334851220114e-03 -8.6464145537217523e-03 2.3145949484340705e-02 -1.2514668199940992e-