<?xml version="1.0"?>
<VTKFile type="UnstructuredGrid"  version="0.1"  >
<UnstructuredGrid>
<Piece  NumberOfPoints="1268" NumberOfCells="4847">
<Points>
<DataArray  type="Float64"  NumberOfComponents="3"  format="ascii">1.994716987487452 0.01317707561264319 -1.202466945460223e-11  1.374072606111497 -0.08614134488653273 -5.388997575085332  -1.285941478930618 0.1916557790035214 -5.691288663606836  -1.59032616235459 -0.4515196446136259 1.626303258728257e-17  0.4950030257755884 2.521650519233041 -5.495391852657774  -0.4107718940653654 -2.429115409112172 -5.58531208084276  -0.9314707163843408 -3.006923447963563 4.87890977618477e-17  1.161824811771535 2.948440156756841 -3.391384395534658e-14  2.146749234505421 0.002696741478414759 -0.5615078450779066  2.330988047973839 -0.000873250973709995 -1.113141311680313  2.540713632977715 -0.1384292375506191 -1.637427654548237  2.645241452520652 -0.2872312815961211 -2.18637082393926  2.504842461151312 -0.2752146673621067 -2.746850782899552  2.287876352721185 -0.2088259978706829 -3.283011632728322  2.137771360922677 -0.2093380261300688 -3.844996501809416  1.970142554575494 -0.2193701374385486 -4.401638277082749  1.701580801829277 -0.1696632515169769 -4.915066532844666  1.398049690886424 0.4419377546899956 -5.387643705321969  1.183972204621215 0.9208338616597355 -5.413149504812257  0.7621482426349403 1.234356207118232 -5.461782499987256  0.2539805730796886 1.370727420898931 -5.519751404145364  -0.2689415860383004 1.319053689498898 -5.578906487138381  -0.7357170559581984 1.076180709179107 -5.631191713357971  -1.086003096318238 0.6812820615514149 -5.669884670156524  -1.65706961757681 -0.5275128747266272 -0.6240725009925172  -1.829082870387909 -0.8347372240299333 -1.153553189134448  -2.030635262011336 -1.097965926806997 -1.693320688638939  -2.148557703924963 -0.9683820133813712 -2.295450526931833  -2.119047321408695 -0.7521727279271558 -2.890676896601294  -1.972500555455803 -0.7106310836492745 -3.509380855831461  -1.885028119342598 -0.4902108162504233 -4.093718100793141  -1.832050776792238 -0.1313823297003599 -4.617858136599065  -1.636180550340053 0.1151199882480144 -5.165527944859976  -1.540434086810702 0.1014447694855235 -7.644826989049428e-17  -1.339902801239663 0.6191128040412099 2.218327606354497e-17  -0.9949589579071262 1.053322092476122 2.12059320661159e-17  -0.5243975458638882 1.346285776146202 7.754217898549941e-16  0.01399251627036286 1.481823287560149 3.252316763596149e-17  0.5696211504784076 1.47677978548424 -7.207855520904863e-17  1.105448032340458 1.331487337928338 1.951563910473908e-16  1.561367740818086 1.018090979386763 -2.179459114756194e-16  1.860006992193919 0.551530302300456 1.369433074745588e-16  -0.152869286718376 2.506583809965366 -5.568804938302105  -0.7781210310064858 2.335338381675429 -5.639249366957451  -1.340550096787874 2.011723800088065 -5.702178028336585  -1.803922993566052 1.555830170950866 -5.753534898075912  -2.144678763029901 1.000979069722826 -5.790734833138769  -2.346903237737564 0.3811866585909049 -5.812061421922149  -2.406990243842066 -0.2684488461825228 -5.817196438260218  -2.318433628103212 -0.9144163570965761 -5.805488779558074  -2.059391262210163 -1.511004864267824 -5.774580158166454  -1.615755841275718 -1.983465489741105 -5.72306417450185  -1.043145925381342 -2.287058241276404 -5.657361969815248  -0.6986882361605687 -2.420627649803484 -5.024556445072709  -0.8272574030199392 -2.685291244074475 -4.476216325063944  -0.8113210073272845 -3.118860027310894 -4.01596683617901  -0.7618552434953355 -3.481598098596065 -3.504026669625047  -0.7509882165597778 -3.609083979854663 -2.886473298216772  -0.7986167670519319 -3.732483084086931 -2.268445488219849  -0.8276969497603353 -3.810997815301134 -1.64593496945388  -0.7425506523451623 -3.557242155569485 -1.078322423839125  -0.7147449622328144 -3.21189056194362 -0.5511080601316157  -1.482234509376526 -2.778582553401298 -5.854479658363816e-16  -1.970737176894139 -2.437284655419533 2.764697292186607e-16  -2.362818572203899 -1.988727212877528 2.439101268600111e-16  -2.642390785384022 -1.462244173776716 5.051059276813266e-16  -2.812149102113852 -0.89052423419162 2.276851973687203e-16  -2.877946727920729 -0.2976446157883296 -1.219909928720168e-16  -2.842947107925845 0.2978601752284433 4.065446096494693e-17  -2.70313036896374 0.8776122116387211 -5.041496169361013e-16  -2.452324348076021 1.418519584933707 4.379274460317988e-16  -2.098265626135573 1.898294456130726 1.951060033519619e-16  -1.658391347368763 2.301023318502569 -1.789574489620802e-16  -1.154148079923361 2.619757341302747 -2.081203863085907e-15  -0.6042202207747882 2.851073703499478 -3.577841418755692e-16  -0.02416138323675775 2.990516581461941 4.065982498622179e-16  0.5710641261211448 3.028216945076794 -1.46882551317968e-16  0.6414151130412097 2.696325287154043 -4.983333021490838  0.771852374565919 2.778456367279237 -4.445188759107248  0.8805845204306011 2.73078881179073 -3.897720120696569  0.9481597620953167 2.69798349057175 -3.343104559074628  0.9815370707090804 2.778214865778854 -2.789250505759619  1.013475345489448 2.861817704396183 -2.235671116027784  1.055849759321274 2.898356228459238 -1.677594140621302  1.093646323460014 2.92793989028903 -1.118725590781912  1.124098871622056 2.957526991478201 -0.5594169689370629  0.2477015793419729 -2.415655802610486 -5.510682951113449  0.8844491790088972 -2.245867158009595 -5.438931443942415  1.464891069119211 -1.932330028996181 -5.373934600293736  1.955087092649627 -1.489613175355717 -5.319502697776375  2.318355026965356 -0.937054784961175 -5.279744576064058  2.524994411863564 -0.307899182343253 -5.257941630215678  2.574632820450045 0.3531084349228537 -5.254020561031156  2.465743861849647 1.006614152640354 -5.268052816559671  2.183897076015212 1.604484044160622 -5.301550147358176  1.722560240631265 2.07491696755195 -5.35506775502591  1.13806318635062 2.378906583716481 -5.422118662603529  1.742182153284979 2.73179858498085 5.854691697147836e-16  2.262480931380501 2.395264875892136 -2.601681534737615e-16  2.698000706832733 1.954727370266727 -3.903113804560263e-16  3.021530388777258 1.426473918441798 1.707421408502106e-16  3.223363606607101 0.8405687193648443 -2.844806418042028e-16  3.305434793487241 0.2261994274297442 -4.472186606099012e-16  3.269241566985055 -0.3926051469820059 3.171555149681837e-16  3.113478077610213 -0.9924495549400153 3.510830505762065e-16  2.840400132149515 -1.548806515270482 -1.707368614952523e-16  2.466120284856568 -2.042983582774378 9.732831365154574e-17  2.008125599488538 -2.460814027017948 -3.577575055983979e-16  1.482521285196868 -2.789563899556613 -4.886146623064541e-17  0.9057866143556688 -3.01678997208197 -2.439392613813594e-16  0.2964958724913082 -3.130681163554852 3.414395345104792e-16  -0.32338307292875 -3.126978161260848 2.926910878106614e-16  -1.29067345658392 -0.3506098753383553 -5.690421630247788  -1.068897680254163 -0.8451623229646739 -5.663999894259847  -0.6782440885714781 -1.219621806060448 -5.6187489875115  -0.168757542531344 -1.390394566692369 -5.560546895724229  0.3611301401510615 -1.294122251639114 -5.500717901478111  0.8191548613516448 -1.005201308695582 -5.449538098373106  1.16817203978903 -0.5892762115769014 -5.411042670828763  1.960898302630318 -0.551652302616722 -8.131516293641286e-17  1.751009740180289 -1.077278642631261 7.445724005953314e-16  1.394016468000002 -1.516729095803803 1.136104663605282e-15  0.9227767039454898 -1.830301465573364 3.434443593283319e-16  0.3780412068884804 -1.984007749105097 8.617772484356591e-16  -0.1885780664025548 -1.977994130030172 2.357202029695971e-16  -0.7327557451871473 -1.821291124380143 1.942410916395698e-17  -1.191068596016128 -1.491774666596192 2.975009434367945e-16  -1.480405544894888 -1.006855825633415 6.954512630084263e-16  -1.812414118534285 0.2561131097252937 -2.664867827914479  2.421751940242729 0.6298287624476981 -1.933377861698098  0.7556418177061754 1.42269463362527 -4.617654324361507  0.003134751711410342 1.574821943356493 -0.9318675177876981  1.015098001669947 1.51699057942374 -0.9441494884276413  0.6193243625380082 1.764115149411371 -1.862230514405671  -0.4757031201037318 1.549728101933577 -1.958273018773558  0.1126459993007786 1.698838152590054 -2.957602797129454  -0.3405660022430232 1.569615851499001 -4.678135257405353  1.818199099779932 0.7365610114574719 -3.763003518505052  -0.9541815370276669 1.23451227632913 -2.875526912859068  -1.269464226480212 1.016489154450913 -4.672047638709048  1.301562892980348 1.557566760682666 -2.802482532053872  -0.7813756340336595 1.414221906310649 -3.725761628685261  -1.58370798409762 0.5643609111372817 -3.581008460136619  -0.988817348255397 1.158392548936659 -1.014254585170146  -1.607700527190565 0.2800106654898483 -1.030081240453645  -1.388203055800784 0.7951310659851955 -1.943712885648593  0.8261955720421881 1.570157055202129 -3.620947225245673  1.681455131778566 1.410849015379531 -1.876189895849114  1.878739160554727 0.943024132521903 -0.9866418074548234  2.103426639579445 1.000735947836943 -2.593434794762663  1.62623803052506 0.6468498306152269 -4.727220189271843  -1.882943490361709 -0.1546739965127431 -1.761716647663214  0.05868355051519467 1.656538949473053 -3.863342338366238  2.465845305360337 0.2632819454094029 -2.663569745038379  1.994842599423799 0.5019775153043848 -0.4779055074204815  2.1671824130763 0.4980244878585698 -1.027636182799239  1.710213566460811 0.9718796190568162 -0.4957578884333736  1.845584590132108 0.2253887364997403 -4.583879812097906  1.579035044615276 0.2924902970866011 -5.101748935835201  1.409777182251665 0.7868327264427526 -5.07202467441607  -1.039178737375989 1.089168173550246 -5.170746090958521  -1.377687418630729 0.6683636420802941 -5.233117919580046  -1.641402128985454 0.4875654733502939 -4.648722230221863  -1.765467255797776 -0.2695484060062747 -1.079683539430899  -1.617858736076732 -0.08318463488274264 -0.5123563299218489  -1.474019211051276 0.4496529111656123 -0.5150171376928306  2.417677350191343 0.3274903893149403 -1.506992657970159 
[...]
<PointData  Tensors="strain"> 
<DataArray  type="Float64"  Name="strain"  NumberOfComponents="9" format="ascii">-5.1422763744941216e-02 -8.5716477890754907e-03 -1.8665062476629846e-01 -8.5716477890754907e-03 6.1676707977851557e-03 -2.0762675442323529e-03 -1.8665062476629846e-01 -2.0762675442323529e-03 1.2895940302706047e-01  -1.4586303431885164e-01 3.2882302541869746e-02 1.1343948732023255e-01 3.2882302541869746e-02 2.5982986685845544e-01 -6.6674076613007949e-02 1.1343948732023258e-01 -6.6674076613007949e-02 8.3828966444168959e-04  -1.2043020588609935e-01 5.2896664332657412e-02 -1.3100013843217445e-01 5.2896664332657439e-02 2.5649656576329238e-01 6.8068043377240733e-02 -1.3100013843217445e-01 6.8068043377240733e-02 -1.6669663020962733e-02  -6.2602277131720341e-02 -3.0048654160034174e-02 1.7066081523666857e-01 -3.0048654160034178e-02 1.8430876259705638e-03 -4.5605186247985222e-02 1.7066081523666857e-01 -4.5605186247985222e-02 1.4553371700065701e-01  6.9812296305541977e-02 -5.2928920769048787e-03 4.0421669939278218e-02 -5.2928920769048744e-03 -6.5281834345660372e-02 3.0947840140957927e-02 4.0421669939278218e-02 3.0947840140957930e-02 9.2845456288841478e-03  1.3083500389857844e-01 -2.8027860961275736e-03 -4.0023480360179754e-02 -2.8027860961275723e-03 -1.0805787623911868e-01 -2.7241068826871551e-02 -4.0023480360179754e-02 -2.7241068826871551e-02 7.4188048065659705e-03  9.7728600584013024e-03 2.0217157545921211e-02 -5.0146535393184741e-02 2.0217157545921211e-02 -1.6746924075756727e-02 1.0775730756062765e-01 -5.0146535393184741e-02 1.0775730756062765e-01 2.8862010267730779e-02  3.3780555119885523e-03 2.2967297838591458e-02 4.1994402173012486e-02 2.2967297838591454e-02 3.6751930276228265e-02 -4.1785441785933013e-02 4.1994402173012486e-02 -4.1785441785933013e-02 -3.2287919550951227e-02  -1.5889939930264457e-01 -3.0650049195353714e-02 -9.9162614475572064e-02 -3.0650049195353714e-02 1.2491738375106336e-01 -5.3949976857813310e-02 -9.9162614475572064e-02 -5.3949976857813310e-02 1.1398605186064216e-01  -1.7752880361583087e-01 -3.7680992080207656e-02 -8.8329785150499426e-02 -3.7680992080207656e-02 1.7959817736528885e-01 -4.7547577693303492e-02 -8.8329785150499426e-02 -4.7547577693303492e-02 9.4532533528035284e-02  -2.0268960767940641e-01 -7.3648722172520329e-03 -7.8008475037863248e-02 -7.3648722172520321e-03 2.0425301217341590e-01 -2.7329774575592800e-02 -7.8008475037863262e-02 -2.7329774575592800e-02 1.0772041245551847e-01  -2.2162913772142889e-01 2.0659258765745626e-02 2.5963769963241591e-03 2.0659258765745626e-02 1.9752459202384107e-01 -4.6692472077195568e-02 2.5963769963241617e-03 -4.6692472077195568e-02 1.4096656346034656e-01  -1.9157003496530242e-01 -4.1649127345811830e-03 9.2424269337689532e-02 -4.1649127345811873e-03 2.4626153019987770e-01 -5.9761660413787290e-02 9.2424269337689532e-02 -5.9761660413787290e-02 6.7722455596822620e-02  -1.8190214477322800e-01 -3.8780021215279750e-02 8.0948290936271428e-02 -3.8780021215279743e-02 2.8201449754338892e-01 -1.9870783863879658e-02 8.0948290936271428e-02 -1.9870783863879658e-02 1.9504392795601289e-02  -1.9228034473055966e-01 -1.5240653532642831e-02 7.1179572156567492e-02 -1.5240653532642831e-02 2.9314966042637697e-01 -1.2731022554294556e-02 7.1179572156567492e-02 -1.2731022554294553e-02 2.1563039699870109e-02  -1.7726330768232429e-01 8.4468726973304016e-04 9.5555385581206215e-02 8.4468726973304016e-04 2.7672382470486545e-01 -3.5607778814093799e-02 9.5555385581206215e-02 -3.5607778814093806e-02 1.9948054112056236e-02  -1.4623320388302105e-01 2.1983320063668096e-02 1.2727346000354145e-01 2.1983320063668096e-02 2.6451256294650805e-01 -4.6055116235324198e-02 1.2727346000354145e-01 -4.6055116235324198e-02 4.5825483677058134e-03  -1.2469893034467724e-01 -1.0414843210581522e-01 1.3841116706747780e-01 -1.0414843210581522e-01 2.0966265587475946e-01 -1.4236530300174480e-02 1.3841116706747780e-01 -1.4236530300174481e-02 2.9965584731361419e-02  -3.4656517534725167e-03 -2.0649655632528069e-01 1.0856966028832998e-01 -2.0649655632528069e-01 7.7760651483537543e-02 3.9660865073338290e-02 1.0856966028832996e-01 3.9660865073338290e-02 4.0950691647217020e-02  1.4660852578642017e-01 -1.5822652653124988e-01 8.0939410063706266e-02 -1.5822652653124988e-01 -9.6985369294696339e-02 7.9901369311195874e-02 8.0939410063706266e-02 7.9901369311195874e-02 5.6797533071626195e-02  2.0938801447968630e-01 -3.5256980176333677e-02 4.9978585402175972e-02 -3.5256980176333670e-02 -1.5999161746417173e-01 1.2147963160341720e-01 4.9978585402176007e-02 1.2147963160341720e-01 6.0408080020836169e-02  1.8607693319304905e-01 8.9232888419555234e-02 -7.2743591407715509e-03 8.9232888419555179e-02 -1.2694088977694715e-01 1.4858976005305863e-01 -7.2743591407715509e-03 1.4858976005305863e-01 5.5334896393684579e-02  7.7904323800647574e-02 1.6913505418899477e-01 -4.9066456606535344e-02 1.6913505418899472e-01 3.6114580416289166e-03 1.4198852834901016e-01 -4.9066456606535344e-02 1.4198852834901016e-01 2.5903167209472607e-02  -4.9509445207761404e-02 1.5401803464299160e-01 -9.4052740978505439e-02 1.5401803464299160e-01 1.4488624604774575e-01 1.1681715348633642e-01 -9.4052740978505439e-02 1.1681715348633642e-01 1.6873500585121607e-02  -1.6323672415331236e-01 -1.6023329206841020e-03 8.6049536117538475e-02 -1.6023329206841025e-03 1.0484705099976509e-01 9.5964727269529822e-03 8.6049536117538475e-02 9.5964727269529839e-03 1.2682217812218852e-01  -1.6618127982214317e-01 -1.7933344369343372e-02 8.3266622389548614e-02 -1.7933344369343372e-02 1.7393752557777670e-01 3.8330777422085609e-03 8.3266622389548614e-02 3.8330777422085583e-03 7.2151212400865278e-02  -1.9195714812055226e-01 -2.5756588290042546e-02 7.2425555614377038e-02 -2.5756588290042546e-02 1.8460754701097784e-01 2.1111311354373118e-02 7.2425555614377038e-02 2.1111311354373118e-02 1.0582247009391488e-01  -2.1912330308994299e-01 -1.8217168697825283e-02 1.4400734997644523e-02 -1.8217168697825283e-02 2.1001502035364067e-01 4.0929798914551341e-02 1.4400734997644526e-02 4.0929798914551341e-02 1.2112446706893387e-01  -2.1539161698633683e-01 -1.4110729671091720e-03 -3.8212361847636621e-02 -1.4110729671091720e-03 2.3408393495575719e-01 7.0795584117497271e-02 -3.8212361847636621e-02 7.0795584117497271e-02 9.9887535798558622e-02  -1.9913555836073760e-01 -2.5878411569673694e-02 -5.1847731717051183e-02 -2.5878411569673694e-02 2.6259069293950199e-01 7.9646069511414716e-02 -5.1847731717051183e-02 7.9646069511414716e-02 5.5460149758533771e-02  -2.0315391371719296e-01 -1.5398666472119129e-02 -4.3049179173912197e-02 -1.5398666472119129e-02 2.5985345277106264e-01 9.2044742643422134e-02 -4.3049179173912211e-02 9.2044742643422134e-02 6.3329483596730948e-02  -2.0969946471754120e-01 2.9488165575548113e-02 -5.5885886439040994e-02 2.9488165575548113e-02 2.4817135394122530e-01 7.8428497318759866e-02 -5.5885886439040987e-02 7.8428497318759852e-02 8.5675820177722767e-02  -1.7245413073685917e-01 4.6440354735775215e-02 -1.0747716461279123e-01 4.6440354735775215e-02 2.4192212209778630e-01 8.2966865911091897e-02 -1.0747716461279123e-01 8.2966865911091897e-02 5.5173550192191952e-02  -9.4522213847136743e-02 4.8855462482952222e-03 1.6090124863448105e-01 4.8855462482952222e-03 1.0939587139330055e-02 -5.7558546758296851e-02 1.6090124863448099e-01 -5.7558546758296851e-02 1.7502716595569912e-01  -7.2156472601186822e-02 3.0177855751796639e-02 1.3437902932228196e-01 3.0177855751796639e-02 -9.4544585380762994e-03 -1.0359450824048180e-01 1.3437902932228202e-01 -1.0359450824048180e-01 1.6962435822513688e-01  -5.6221436924351324e-02 6.0772827657694616e-02 1.0672840712276657e-01 6.0772827657694616e-02 -3.5923022425022773e-02 -1.2543483629422622e-01 1.0672840712276657e-01 -1.2543483629422622e-01 1.8550328352776269e-01  -1.7097737182197183e-02 4.1038709110007461e-02 5.5268336133824689e-02 4.1038709110007461e-02 -6.4119177322655790e-02 -1.5537742582979644e-01 5.5268336133824703e-02 -1.5537742582979644e-01 1.7475404322616908e-01  6.9935925773100284e-05 2.9849704933108106e-02 2.9332237793147607e-02 2.9849704933108106e-02 -9.3573568569432317e-02 -1.6375558972567930e-01 2.9332237793147607e-02 -1.6375558972567930e-01 1.9362316281478095e-01  3.4634559487839874e-03 -2.5420531774386336e-04 -3.4293255854095421e-02 -2.5420531774386336e-04 -9.3788492315691876e-02 -1.6692713618630325e-01 -3.4293255854095421e-02 -1.6692713618630325e-01 1.9362111094905624e-01  8.4617500988979008e-03 -2.3187704904296988e-02 -6.8573910511491268e-02 -2.3187704904296988e-02 -8.6362464911505996e-02 -1.5714022155859600e-01 -6.8573910511491268e-02 -1.5714022155859600e-01 1.6825841994706275e-01  -2.2670065147117453e-02 -4.7582913245446355e-02 -1.4989806732456454e-01 -4.7582913245446355e-02 -4.4445182242207011e-02 -1.0589258970545519e-01 -1.4989806732456454e-01 -1.0589258970545519e-01 1.6933353280099561e-01  -6.6232536604106010e-02 -3.9176851876121313e-02 -1.8425717231329308e-01 -3.9176851876121313e-02 -2.2059498711496966e-02 -4.4200541528619963e-02 -1.8425717231329308e-01 -4.4200541528619963e-02 1.9429096868791340e-01  5.5719320223091590e-02 2.7744749079396992e-02 2.8946080855066978e-02 2.7744749079396992e-02 -5.4884290744050164e-02 5.2817089567152573e-02 2.8946080855066971e-02 5.2817089567152573e-02 1.3687843812002887e-02  5.0166188353487309e-02 5.3934884611125618e-02 1.9979420084550354e-02 5.3934884611125618e-02 -4.9601203001967943e-02 5.8157391384969191e-02 1.9979420084550351e-02 5.8157391384969191e-02 1.7482100063904743e-02  4.6082158754861572e-03 6.0439649421899173e-02 1.6954353686276476e-03 6.0439649421899173e-02 -1.5432022780013609e-02 6.0000595823784066e-02 1.6954353686276487e-03 6.0000595823784066e-02 2.4473193751088432e-02  -2.5931247472139016e-02 6.4579386740295008e-02 -3.4526277375059304e-02 6.4579386740295008e-02 4.3613834763385928e-02 5.3013410937809397e-02 -3.4526277375059304e-02 5.3013410937809397e-02 -2.1590698555990393e-04  -5.2557684098416907e-02 4.1936547367592204e-02 -4.2978472177830185e-02 4.1936547367592211e-02 7.7366893583894716e-02 4.6736677761152326e-02 -4.2978472177830185e-02 4.6736677761152326e-02 -5.8066504891542761e-03  -6.4108365115414623e-02 1.4387507995590127e-02 -5.0102315477395042e-02 1.4387507995590154e-02 7.7503832440951340e-02 3.1660067425286868e-02 -5.0102315477395042e-02 3.1660067425286868e-02 4.0427026480554787e-03  -5.7114259562777381e-02 -1.6683282898206975e-02 -6.1906994875886946e-02 -1.6683282898206975e-02 7.2480449341146364e-02 1.7572057067643441e-02 -6.1906994875886946e-02 1.7572057067643441e-02 3.0201738698984399e-03  -3.5959454748376807e-02 -5.8060603790675451e-02 -5.2745608387791805e-02 -5.8060603790675451e-02 6.2269331057149005e-02 7.0882610009943102e-05 -5.2745608387791805e-02 7.0882610009943969e-05 -9.5824519822809984e-03  -7.8354111939252583e-03 -6.9489353834017872e-02 -6.2119537547960652e-02 -6.9489353834017858e-02 1.0918818191344166e-02 1.4432174031977075e-02 -6.2119537547960652e-02 1.4432174031977075e-02 1.2467994933623621e-02  3.7521867074637429e-02 -2.3776312621089025e-02 -6.5925482249284545e-02 -2.3776312621089018e-02 -5.8251315950965242e-02 -5.0501555823910822e-03 -6.5925482249284545e-02 -5.0501555823910856e-03 2.8651963176997492e-02  9.5769023705204237e-02 -3.2355467560516361e-02 -5.6371853968139284e-02 -3.2355467560516361e-02 -8.4205935355190900e-02 -3.4741068850970835e-02 -5.6371853968139284e-02 -3.4741068850970835e-02 1.2124914448786443e-02  1.5662513586529261e-01 -3.2313710615154270e-02 -5.9446695561349308e-02 -3.2313710615154270e-02 -1.4368871717552523e-01 -7.5021868587754115e-02 -5.9446695561349301e-02 -7.5021868587754142e-02 5.4901372219906479e-02  1.5455266916239788e-01 -1.9777194529295564e-02 -5.4072564175182802e-02 -1.9777194529295571e-02 -9.1335919054461090e-02 -1.2400045255829931e-01 -5.4072564175182795e-02 -1.2400045255829931e-01 9.8909944275428676e-03  1.2486532731066464e-01 -2.2644201087483953e-03 -3.0880170301980984e-02 -2.2644201087484018e-03 -6.4140281993086606e-02 -9.8084328155360764e-02 -3.0880170301980980e-02 -9.8084328155360764e-02 -2.0606682309075121e-02  1.0728670605010555e-01 5.1759598045018566e-03 -2.1289026288016297e-02 5.1759598045018496e-03 -8.4804580561744378e-02 -6.2408008950151000e-02 -2.1289026288016297e-02 -6.2408008950151000e-02 2.9452710715782691e-03  8.9242818852599284e-02 -1.9016591152752366e-02 -4.2905128084309692e-02 -1.9016591152752362e-02 -1.1407582923622972e-01 -4.0645501956443036e-02 -4.2905128084309685e-02 -4.0645501956443029e-02 5.7014747955692585e-02  6.8297791235299526e-02 -2.4421130884566232e-02 -3.3137062137381136e-02 -2.4421130884566235e-02 -1.0558339364130891e-01 -2.1098289892866356e-02 -3.3137062137381136e-02 -2.1098289892866356e-02 6.0300668141983919e-02  4.4099605837255529e-02 -3.0528649717643352e-02 -6.8161262295143221e-03 -3.0528649717643352e-02 -7.0562334907701335e-02 2.2950812650248675e-02 -6.8161262295143221e-03 2.2950812650248668e-02 3.4877654662716757e-02  2.9350816351868893e-02 -6.0492188442984145e-02 2.9958665061284809e-03 -6.0492188442984145e-02 -5.3732509694257989e-02 8.4733874142791460e-02 2.9958665061284818e-03 8.4733874142791460e-02 5.0647027357535637e-02  3.4885932994160325e-02 -4.2646223223266937e-02 -2.1373566348598275e-02 -4.2646223223266930e-02 -7.9917295773978131e-02 1.1213979899489035e-01 -2.1373566348598275e-02 1.1213979899489035e-01 8.8041814594204917e-02  1.6894778289455754e-02 1.3185712128008844e-02 -2.8607142701095826e-02 1.3185712128008844e-02 -2.1483027117611502e-02 1.0070965575580473e-01 -2.8607142701095826e-02 1.0070965575580473e-01 1.8618182911467062e-02  2.0080863167557913e-02 5.8570473347309034e-03 -1.2864659258423967e-02 5.8570473347309034e-03 -2.1171505272466890e-02 9.3653104899266482e-02 -1.2864659258423967e-02 9.3653104899266482e-02 1.0017549583435160e-02  2.5489995757093306e-02 -7.9151514558887907e-03 7.9482755470885822e-03 -7.9151514558887907e-03 -2.6287675899497660e-02 9.1216679932708905e-02 7.9482755470885822e-03 9.1216679932708905e-02 9.7256878122843320e-03  2.9684831145817270e-02 -1.8673077568593897e-02 2.3724694291644977e-02 -1.8673077568593894e-02 -2.0755386440330207e-02 8.1730501257337829e-02 2.3724694291644977e-02 8.1730501257337787e-02 1.0972170133764112e-03  2.3667661335182725e-02 -1.5883713988346950e-02 4.0090519576726227e-02 -1.5883713988346950e-02 -1.5368317678763130e-02 7.7913073203143626e-02 4.0090519576726227e-02 7.7913073203143626e-02 -5.3101745198979070e-04  4.2585373178060930e-02 -1.0136504378500080e-02 3.0034333048203556e-02 -1.0136504378500080e-02 9.0536652576588992e-04 5.8820413114329451e-02 3.0034333048203563e-02 5.8820413114329465e-02 -4.0282048459029503e-02  4.7082999530346996e-02 -1.7934220553358228e-02 4.1689486812077729e-02 -1.7934220553358228e-02 4.6057030212374927e-03 3.4735984501520947e-02 4.1689486812077722e-02 3.4735984501520947e-02 -4.6982940190429222e-02  1.7098093938887206e-02 -3.2108178644520168e-02 6.3646265035829777e-02 -3.2108178644520168e-02 1.7964910483242134e-02 3.5824191466375235e-02 6.3646265035829777e-02 3.5824191466375235e-02 -2.3899196426930312e-02  1.7724319634144958e-02 -3.4773835666407446e-02 5.7865753067118601e-02 -3.4773835666407446e-02 3.6669591379596328e-02 1.1425275873019320e-02 5.7865753067118601e-02 1.1425275873019326e-02 -4.5133738239946916e-02  5.1199677251351529e-03 -3.4223759451327489e-02 6.1296732113236815e-02 -3.4223759451327489e-02 5.2247942212881524e-02 6.0627367608538174e-04 6.1296732113236843e-02 6.0627367608538641e-04 -4.7214620845502410e-02  -1.3753147504740720e-02 -1.8969943159956142e-02 5.7401130743757710e-02 -1.8969943159956142e-02 5.9042588588177895e-02 -1.4023136446211330e-02 5.7401130743757717e-02 -1.4023136446211327e-02 -3.5942087646969684e-02  -1.9337744108380076e-02 4.1380599169129990e-03 5.9962912669311114e-02 4.1380599169129990e-03 4.6447807504529461e-02 -2.2681743027257530e-02 5.9962912669311114e-02 -2.2681743027257530e-02 -1.7422044033718522e-02  3.1229071838583876e-03 6.2328497331312193e-03 3.8887908562065185e-02 6.2328497331312210e-03 5.1345802738993314e-02 -2.9083272290215137e-02 3.8887908562065185e-02 -2.9083272290215140e-02 -4.8615006639727752e-02  1.1868603419861120e-02 -2.6982464374506597e-02 -1.2194983113723017e-02 -2.6982464374506597e-02 6.0156653653675701e-02 -4.7955896916942811e-02 -1.2194983113723020e-02 -4.7955896916942811e-02 -6.6605599441134047e-02  -1.2395359183750955e-02 2.3036111008594734e-02 2.8828878375874830e-02 2.3036111008594738e-02 3.8480636776194760e-02 -4.0239568719344608e-02 2.8828878375874830e-02 -4.0239568719344608e-02 -1.9106975099879849e-02  5.3447061677460168e-02 -2.8132704915628592e-02 3.9589077570948858e-02 -2.8132704915628592e-02 -7.0097953354278250e-02 2.0091588087163773e-02 3.9589077570948858e-02 2.0091588087163777e-02 3.0738214400787670e-02  6.0091504359822509e-02 -2.9185516610791776e-02 3.9892965222369625e-02 -2.9185516610791776e-02 -7.8399302450285702e-02 -1.9893911838020833e-04 3.9892965222369625e-02 -1.9893911838020833e-04 3.1589812827415284e-02  7.4209937722315836e-02 -5.5790480686102234e-02 4.7396920777372627e-02 -5.5790480686102234e-02 -1.0195455218930899e-01 -9.2448754748569364e-03 4.7396920777372627e-02 -9.2448754748569381e-03 5.6084443790581862e-02  1.0043642786783846e-01 -5.1499625104729302e-02 5.1720420570274067e-02 -5.1499625104729302e-02 -1.2825718076164230e-01 1.1108169258857256e-02 5.1720420570274060e-02 1.1108169258857256e-02 7.1024108610467679e-02  9.2760539034767955e-02 -4.6316543992561007e-02 4.8816326207687964e-02 -4.6316543992561007e-02 -1.2320191091701041e-01 2.0572226831380911e-02 4.8816326207687985e-02 2.0572226831380911e-02 7.0367308073553042e-02  8.3355414770012279e-02 -3.2583628482373041e-02 3.7856525786385604e-02 -3.2583628482373041e-02 -1.2108445995909742e-01 1.7431157221573217e-02 3.7856525786385611e-02 1.7431157221573217e-02 7.0533127257318168e-02  6.0162101668773331e-02 -2.7961639860906322e-02 2.5359749216473392e-02 -2.7961639860906322e-02 -1.0785218615268488e-01 6.8475257444067820e-03 2.5359749216473392e-02 6.8475257444067820e-03 7.1603940240478475e-02  3.8538554272739306e-02 -2.4673801613566321e-02 4.7306536935320241e-02 -2.4673801613566321e-02 -8.5555957116850184e-02 -9.8439540937926562e-03 4.7306536935320241e-02 -9.8439540937926562e-03 6.2471384466267127e-02  3.4480661608833299e-02 -6.2216819082031843e-03 5.8140290069234817e-02 -6.2216819082031825e-03 -2.0517454890384187e-02 -7.9467971554017904e-04 5.8140290069234817e-02 -7.9467971554017926e-04 -1.0304349592080065e-02  1.1268825943726461e-01 4.4318818517492052e-02 -3.1894459382286890e-02 4.4318818517492052e-02 -9.9270025151020708e-02 -4.9391213785436379e-02 -3.1894459382286890e-02 -4.9391213785436379e-02 1.5754790793935106e-02  9.2366362210645675e-02 1.1002274067330994e-01 -4.2517623900318099e-03 1.1002274067330994e-01 -6.7500288299328054e-02 -5.5648915359275367e-02 -4.2517623900318099e-03 -5.5648915359275360e-02 1.4520253508619749e-02  2.4879751507447853e-02 1.2090896625290709e-01 7.1085121890822715e-03 1.2090896625290709e-01 -2.0025496865903495e-02 -5.3054060953663933e-02 7.1085121890822767e-03 -5.3054060953663919e-02 2.7760970595243937e-02  -4.7371747182633955e-02 1.1474345348757779e-01 2.3865753579017046e-02 1.1474345348757779e-01 4.5236456370577570e-02 -4.8379341255149637e-02 2.3865753579017046e-02 -4.8379341255149637e-02 3.6018044789832934e-02  -8.3799927037405630e-02 6.7754351481264227e-02 2.9029107080936926e-02 6.7754351481264227e-02 6.2277695479585463e-02 -4.7885638328908117e-02 2.9029107080936926e-02 -4.7885638328908117e-02 4.7326525312618377e-02  -8.4399478319525531e-02 2.2728935418133346e-02 4.4279017406696514e-02 2.2728935418133346e-02 8.2135679373757597e-02 -3.2643503238358434e-02 4.4279017406696514e-02 -3.2643503238358476e-02 2.2644261298848310e-02  -6.4746955143406393e-02 -2.3375087646138295e-02 5.1538836174187100e-02 -2.3375087646138295e-02 6.5765733238777532e-02 -2.0612364418963726e-02 5.1538836174187100e-02 -2.0612364418963729e-02 1.3096986161700588e-02  -6.2622082090529163e-02 -3.2166617272377691e-02 3.3695655102591100e-02 -3.2166617272377684e-02 4.5994086538968394e-02 -2.0817711659419702e-02 3.3