<?xml version="1.0"?>
<VTKFile type="UnstructuredGrid"  version="0.1"  >
<UnstructuredGrid>
<Piece  NumberOfPoints="1268" NumberOfCells="4847">
<Points>
<DataArray  type="Float64"  NumberOfComponents="3"  format="ascii">1.994716987487452 0.01317707561264319 -1.202466945460223e-11  1.374072606111497 -0.08614134488653273 -5.388997575085332  -1.285941478930618 0.1916557790035214 -5.691288663606836  -1.59032616235459 -0.4515196446136259 1.626303258728257e-17  0.4950030257755884 2.521650519233041 -5.495391852657774  -0.4107718940653654 -2.429115409112172 -5.58531208084276  -0.9314707163843408 -3.006923447963563 4.87890977618477e-17  1.161824811771535 2.948440156756841 -3.391384395534658e-14  2.146749234505421 0.002696741478414759 -0.5615078450779066  2.330988047973839 -0.000873250973709995 -1.113141311680313  2.540713632977715 -0.1384292375506191 -1.637427654548237  2.645241452520652 -0.2872312815961211 -2.18637082393926  2.504842461151312 -0.2752146673621067 -2.746850782899552  2.287876352721185 -0.2088259978706829 -3.283011632728322  2.137771360922677 -0.2093380261300688 -3.844996501809416  1.970142554575494 -0.2193701374385486 -4.401638277082749  1.701580801829277 -0.1696632515169769 -4.915066532844666  1.398049690886424 0.4419377546899956 -5.387643705321969  1.183972204621215 0.9208338616597355 -5.413149504812257  0.7621482426349403 1.234356207118232 -5.461782499987256  0.2539805730796886 1.370727420898931 -5.519751404145364  -0.2689415860383004 1.319053689498898 -5.578906487138381  -0.7357170559581984 1.076180709179107 -5.631191713357971  -1.086003096318238 0.6812820615514149 -5.669884670156524  -1.65706961757681 -0.5275128747266272 -0.6240725009925172  -1.829082870387909 -0.8347372240299333 -1.153553189134448  -2.030635262011336 -1.097965926806997 -1.693320688638939  -2.148557703924963 -0.9683820133813712 -2.295450526931833  -2.119047321408695 -0.7521727279271558 -2.890676896601294  -1.972500555455803 -0.7106310836492745 -3.509380855831461  -1.885028119342598 -0.4902108162504233 -4.093718100793141  -1.832050776792238 -0.1313823297003599 -4.617858136599065  -1.636180550340053 0.1151199882480144 -5.165527944859976  -1.540434086810702 0.1014447694855235 -7.644826989049428e-17  -1.339902801239663 0.6191128040412099 2.218327606354497e-17  -0.9949589579071262 1.053322092476122 2.12059320661159e-17  -0.5243975458638882 1.346285776146202 7.754217898549941e-16  0.01399251627036286 1.481823287560149 3.252316763596149e-17  0.5696211504784076 1.47677978548424 -7.207855520904863e-17  1.105448032340458 1.331487337928338 1.951563910473908e-16  1.561367740818086 1.018090979386763 -2.179459114756194e-16  1.860006992193919 0.551530302300456 1.369433074745588e-16  -0.152869286718376 2.506583809965366 -5.568804938302105  -0.7781210310064858 2.335338381675429 -5.639249366957451  -1.340550096787874 2.011723800088065 -5.702178028336585  -1.803922993566052 1.555830170950866 -5.753534898075912  -2.144678763029901 1.000979069722826 -5.790734833138769  -2.346903237737564 0.3811866585909049 -5.812061421922149  -2.406990243842066 -0.2684488461825228 -5.817196438260218  -2.318433628103212 -0.9144163570965761 -5.805488779558074  -2.059391262210163 -1.511004864267824 -5.774580158166454  -1.615755841275718 -1.983465489741105 -5.72306417450185  -1.043145925381342 -2.287058241276404 -5.657361969815248  -0.6986882361605687 -2.420627649803484 -5.024556445072709  -0.8272574030199392 -2.685291244074475 -4.476216325063944  -0.8113210073272845 -3.118860027310894 -4.01596683617901  -0.7618552434953355 -3.481598098596065 -3.504026669625047  -0.7509882165597778 -3.609083979854663 -2.886473298216772  -0.7986167670519319 -3.732483084086931 -2.268445488219849  -0.8276969497603353 -3.810997815301134 -1.64593496945388  -0.7425506523451623 -3.557242155569485 -1.078322423839125  -0.7147449622328144 -3.21189056194362 -0.5511080601316157  -1.482234509376526 -2.778582553401298 -5.854479658363816e-16  -1.970737176894139 -2.437284655419533 2.764697292186607e-16  -2.362818572203899 -1.988727212877528 2.439101268600111e-16  -2.642390785384022 -1.462244173776716 5.051059276813266e-16  -2.812149102113852 -0.89052423419162 2.276851973687203e-16  -2.877946727920729 -0.2976446157883296 -1.219909928720168e-16  -2.842947107925845 0.2978601752284433 4.065446096494693e-17  -2.70313036896374 0.8776122116387211 -5.041496169361013e-16  -2.452324348076021 1.418519584933707 4.379274460317988e-16  -2.098265626135573 1.898294456130726 1.951060033519619e-16  -1.658391347368763 2.301023318502569 -1.789574489620802e-16  -1.154148079923361 2.619757341302747 -2.081203863085907e-15  -0.6042202207747882 2.851073703499478 -3.577841418755692e-16  -0.02416138323675775 2.990516581461941 4.065982498622179e-16  0.5710641261211448 3.028216945076794 -1.46882551317968e-16  0.6414151130412097 2.696325287154043 -4.983333021490838  0.771852374565919 2.778456367279237 -4.445188759107248  0.8805845204306011 2.73078881179073 -3.897720120696569  0.9481597620953167 2.69798349057175 -3.343104559074628  0.9815370707090804 2.778214865778854 -2.789250505759619  1.013475345489448 2.861817704396183 -2.235671116027784  1.055849759321274 2.898356228459238 -1.677594140621302  1.093646323460014 2.92793989028903 -1.118725590781912  1.124098871622056 2.957526991478201 -0.5594169689370629  0.2477015793419729 -2.415655802610486 -5.510682951113449  0.8844491790088972 -2.245867158009595 -5.438931443942415  1.464891069119211 -1.932330028996181 -5.373934600293736  1.955087092649627 -1.489613175355717 -5.319502697776375  2.318355026965356 -0.937054784961175 -5.279744576064058  2.524994411863564 -0.307899182343253 -5.257941630215678  2.574632820450045 0.3531084349228537 -5.254020561031156  2.465743861849647 1.006614152640354 -5.268052816559671  2.183897076015212 1.604484044160622 -5.301550147358176  1.722560240631265 2.07491696755195 -5.35506775502591  1.13806318635062 2.378906583716481 -5.422118662603529  1.742182153284979 2.73179858498085 5.854691697147836e-16  2.262480931380501 2.395264875892136 -2.601681534737615e-16  2.698000706832733 1.954727370266727 -3.903113804560263e-16  3.021530388777258 1.426473918441798 1.707421408502106e-16  3.223363606607101 0.8405687193648443 -2.844806418042028e-16  3.305434793487241 0.2261994274297442 -4.472186606099012e-16  3.269241566985055 -0.3926051469820059 3.171555149681837e-16  3.113478077610213 -0.9924495549400153 3.510830505762065e-16  2.840400132149515 -1.548806515270482 -1.707368614952523e-16  2.466120284856568 -2.042983582774378 9.732831365154574e-17  2.008125599488538 -2.460814027017948 -3.577575055983979e-16  1.482521285196868 -2.789563899556613 -4.886146623064541e-17  0.9057866143556688 -3.01678997208197 -2.439392613813594e-16  0.2964958724913082 -3.130681163554852 3.414395345104792e-16  -0.32338307292875 -3.126978161260848 2.926910878106614e-16  -1.29067345658392 -0.3506098753383553 -5.690421630247788  -1.068897680254163 -0.8451623229646739 -5.663999894259847  -0.6782440885714781 -1.219621806060448 -5.6187489875115  -0.168757542531344 -1.390394566692369 -5.560546895724229  0.3611301401510615 -1.294122251639114 -5.500717901478111  0.8191548613516448 -1.005201308695582 -5.449538098373106  1.16817203978903 -0.5892762115769014 -5.411042670828763  1.960898302630318 -0.551652302616722 -8.131516293641286e-17  1.751009740180289 -1.077278642631261 7.445724005953314e-16  1.394016468000002 -1.516729095803803 1.136104663605282e-15  0.9227767039454898 -1.830301465573364 3.434443593283319e-16  0.3780412068884804 -1.984007749105097 8.617772484356591e-16  -0.1885780664025548 -1.977994130030172 2.357202029695971e-16  -0.7327557451871473 -1.821291124380143 1.942410916395698e-17  -1.191068596016128 -1.491774666596192 2.975009434367945e-16  -1.480405544894888 -1.006855825633415 6.954512630084263e-16  -1.812414118534285 0.2561131097252937 -2.664867827914479  2.421751940242729 0.6298287624476981 -1.933377861698098  0.7556418177061754 1.42269463362527 -4.617654324361507  0.003134751711410342 1.574821943356493 -0.9318675177876981  1.015098001669947 1.51699057942374 -0.9441494884276413  0.6193243625380082 1.764115149411371 -1.862230514405671  -0.4757031201037318 1.549728101933577 -1.958273018773558  0.1126459993007786 1.698838152590054 -2.957602797129454  -0.3405660022430232 1.569615851499001 -4.678135257405353  1.818199099779932 0.7365610114574719 -3.763003518505052  -0.9541815370276669 1.23451227632913 -2.875526912859068  -1.269464226480212 1.016489154450913 -4.672047638709048  1.301562892980348 1.557566760682666 -2.802482532053872  -0.7813756340336595 1.414221906310649 -3.725761628685261  -1.58370798409762 0.5643609111372817 -3.581008460136619  -0.988817348255397 1.158392548936659 -1.014254585170146  -1.607700527190565 0.2800106654898483 -1.030081240453645  -1.388203055800784 0.7951310659851955 -1.943712885648593  0.8261955720421881 1.570157055202129 -3.620947225245673  1.681455131778566 1.410849015379531 -1.876189895849114  1.878739160554727 0.943024132521903 -0.9866418074548234  2.103426639579445 1.000735947836943 -2.593434794762663  1.62623803052506 0.6468498306152269 -4.727220189271843  -1.882943490361709 -0.1546739965127431 -1.761716647663214  0.05868355051519467 1.656538949473053 -3.863342338366238  2.465845305360337 0.2632819454094029 -2.663569745038379  1.994842599423799 0.5019775153043848 -0.4779055074204815  2.1671824130763 0.4980244878585698 -1.027636182799239  1.710213566460811 0.9718796190568162 -0.4957578884333736  1.845584590132108 0.2253887364997403 -4.583879812097906  1.579035044615276 0.2924902970866011 -5.101748935835201  1.409777182251665 0.7868327264427526 -5.07202467441607  -1.039178737375989 1.089168173550246 -5.170746090958521  -1.377687418630729 0.6683636420802941 -5.233117919580046  -1.641402128985454 0.4875654733502939 -4.648722230221863  -1.765467255797776 -0.2695484060062747 -1.079683539430899  -1.617858736076732 -0.08318463488274264 -0.5123563299218489  -1.474019211051276 0.4496529111656123 -0.5150171376928306  2.417677350191343 0.3274903893149403 -1.506992657970159 
[...]
<PointData  Tensors="strain"> 
<DataArray  type="Float64"  Name="strain"  NumberOfComponents="9" format="ascii">-4.6314067382697902e-02 -9.9536449873486310e-03 -2.8315872651577706e-01 -9.9536449873486310e-03 1.0952056237584658e-02 -3.7266427240275506e-02 -2.8315872651577706e-01 -3.7266427240275506e-02 2.1621948622863865e-01  -1.8449756604584311e-01 4.8847704064522240e-02 1.4681553919038146e-01 4.8847704064522240e-02 3.7301120384296810e-01 -8.2948405215557311e-02 1.4681553919038146e-01 -8.2948405215557311e-02 2.2330428544652559e-02  -1.4361872004722845e-01 7.5908695376959726e-02 -1.7560276517496812e-01 7.5908695376959726e-02 3.5281572814626910e-01 9.3181960457913923e-02 -1.7560276517496812e-01 9.3181960457913923e-02 7.1296745737408924e-03  -6.6240395075985947e-02 -3.7167862508608894e-02 2.6397056367574173e-01 -3.7167862508608894e-02 3.2919025689612984e-03 -3.0502254349189659e-02 2.6397056367574173e-01 -3.0502254349189659e-02 2.4254483349913422e-01  9.4243364158280815e-02 -1.0229962679813536e-02 5.7676367206578642e-02 -1.0229962679813527e-02 -9.1911878501380953e-02 5.5991749152483061e-02 5.7676367206578642e-02 5.5991749152483061e-02 2.8382752041464381e-02  1.6844331189242304e-01 -7.0609466197936186e-03 -5.2777398438508663e-02 -7.0609466197936246e-03 -1.4849921890719986e-01 -3.7896125886442006e-02 -5.2777398438508663e-02 -3.7896125886442006e-02 3.2910350957492229e-02  9.1369558926000902e-04 1.3183010643356041e-02 -4.9572526104587226e-02 1.3183010643356049e-02 -1.8411520490952776e-02 1.7756405691140434e-01 -4.9572526104587226e-02 1.7756405691140434e-01 7.4978444555363524e-02  6.4258716879289270e-03 2.9102720339186924e-02 5.8284769279663147e-02 2.9102720339186924e-02 4.6722000221441011e-02 -8.1321222059997367e-02 5.8284769279663147e-02 -8.1321222059997367e-02 -3.5057150846384735e-02  -1.8765919911121828e-01 -4.3192150685833826e-02 -1.5850426989576427e-01 -4.3192150685833826e-02 1.8702686799376997e-01 -8.1978681026330810e-02 -1.5850426989576427e-01 -8.1978681026330810e-02 1.6926740902124413e-01  -2.1838257137866834e-01 -5.8243033169419554e-02 -1.2672532474029991e-01 -5.8243033169419554e-02 2.6510718845535036e-01 -6.5071930524722335e-02 -1.2672532474029991e-01 -6.5071930524722335e-02 1.4247863669654162e-01  -2.5046079089159562e-01 -1.0319337084546222e-02 -1.0960905593511243e-01 -1.0319337084546222e-02 2.9050495036461033e-01 -3.5773635978024458e-02 -1.0960905593511243e-01 -3.5773635978024458e-02 1.6357105779373751e-01  -2.7431065655880588e-01 2.7172988131652597e-02 1.8352793218963407e-03 2.7172988131652597e-02 2.7874947056187777e-01 -5.6289960352206611e-02 1.8352793218963399e-03 -5.6289960352206611e-02 2.0711706617663816e-01  -2.3460298228379031e-01 -4.3294477733826645e-03 1.2780608694727474e-01 -4.3294477733826584e-03 3.3567387449775055e-01 -7.2950339520156962e-02 1.2780608694727474e-01 -7.2950339520156962e-02 1.1686871236416037e-01  -2.2544944371670267e-01 -4.6291345465003193e-02 1.1328968912454020e-01 -4.6291345465003186e-02 3.8576362775216078e-01 -2.6119117381666487e-02 1.1328968912454020e-01 -2.6119117381666491e-02 5.3979757262266580e-02  -2.3910922770766796e-01 -1.5816323172715151e-02 9.9366327348995587e-02 -1.5816323172715162e-02 3.9687153692109106e-01 -1.6226646398899636e-02 9.9366327348995587e-02 -1.6226646398899636e-02 5.9462457516890999e-02  -2.1841962419441185e-01 7.8271686755574648e-03 1.3039080516337595e-01 7.8271686755574665e-03 3.7365647298812321e-01 -4.3025871056544478e-02 1.3039080516337595e-01 -4.3025871056544492e-02 5.5913728326903667e-02  -1.7306989435180692e-01 3.5284470147788495e-02 1.6941416202314882e-01 3.5284470147788495e-02 3.6601971351323426e-01 -5.7570850290600530e-02 1.6941416202314882e-01 -5.7570850290600530e-02 2.3860683392769415e-02  -1.5214793926986334e-01 -1.3482995622238284e-01 1.8044614801787212e-01 -1.3482995622238292e-01 3.0163047420033751e-01 -1.5411597506372488e-02 1.8044614801787212e-01 -1.5411597506372488e-02 5.8633834551235053e-02  1.4836365530147839e-02 -2.7297328627471346e-01 1.4367470229023102e-01 -2.7297328627471340e-01 1.1683394881558584e-01 5.7210517144886251e-02 1.4367470229023102e-01 5.7210517144886251e-02 7.7725981750566803e-02  2.1406372917044503e-01 -2.1576119166282820e-01 1.0952008905083084e-01 -2.1576119166282826e-01 -1.1023404690232286e-01 1.1466511961595106e-01 1.0952008905083084e-01 1.1466511961595106e-01 1.0215202080590649e-01  2.9836058226442091e-01 -5.0747175652039886e-02 6.7712710044439031e-02 -5.0747175652039886e-02 -1.9622048043916224e-01 1.6675864026289844e-01 6.7712710044439045e-02 1.6675864026289844e-01 1.0661078498280682e-01  2.6847583884109777e-01 1.1998913108881536e-01 -7.8811463055535862e-03 1.1998913108881537e-01 -1.4786468792480309e-01 2.0027984370373531e-01 -7.8811463055535810e-03 2.0027984370373528e-01 9.2753698533365750e-02  1.2858622117370683e-01 2.3065082308027460e-01 -7.2807752552562416e-02 2.3065082308027460e-01 1.2570013297254479e-02 1.8904307133045195e-01 -7.2807752552562416e-02 1.8904307133045195e-01 6.6957616544416898e-02  -3.5807881760750067e-02 2.1153312741965505e-01 -1.3112466127303546e-01 2.1153312741965505e-01 2.0397924510158902e-01 1.5660338518904557e-01 -1.3112466127303551e-01 1.5660338518904557e-01 4.2541805832712359e-02  -2.0194783675092931e-01 -1.6989867765132515e-02 1.4626847432550735e-01 -1.6989867765132515e-02 1.6291131023101979e-01 1.4621003857257679e-02 1.4626847432550735e-01 1.4621003857257679e-02 1.9052268556994190e-01  -2.0753036911430922e-01 -3.8668245926279737e-02 1.3070141567607227e-01 -3.8668245926279737e-02 2.5455953550899835e-01 9.8251515396973500e-03 1.3070141567607227e-01 9.8251515396973466e-03 1.2065487467985639e-01  -2.3618329237073998e-01 -3.9250928341715459e-02 1.1454504187677365e-01 -3.9250928341715459e-02 2.6593465163760172e-01 3.0813656492036542e-02 1.1454504187677365e-01 3.0813656492036542e-02 1.6143000135214963e-01  -2.7413720236318462e-01 -1.7101124311641451e-02 2.3339374498071205e-02 -1.7101124311641451e-02 2.9636438834270545e-01 5.5889287167687193e-02 2.3339374498071205e-02 5.5889287167687193e-02 1.8477242772764649e-01  -2.6960199498193094e-01 4.2109568833252472e-03 -4.8234023674766202e-02 4.2109568833252472e-03 3.2863125640272800e-01 9.2141294981713542e-02 -4.8234023674766202e-02 9.2141294981713542e-02 1.5529652848079603e-01  -2.5039285143953094e-01 -2.2630886692882289e-02 -6.6625303836944538e-02 -2.2630886692882289e-02 3.6568226390188241e-01 1.0823393095295789e-01 -6.6625303836944524e-02 1.0823393095295790e-01 9.6564496345389716e-02  -2.5883080654401891e-01 -1.3649204266682339e-02 -4.9610428220642711e-02 -1.3649204266682339e-02 3.6322048563398057e-01 1.2151250182091056e-01 -4.9610428220642738e-02 1.2151250182091056e-01 1.0926487374162544e-01  -2.6165089092423710e-01 4.5077541608032567e-02 -6.6142897835602343e-02 4.5077541608032561e-02 3.4213452889858886e-01 1.0625267299621256e-01 -6.6142897835602329e-02 1.0625267299621256e-01 1.3871459287935559e-01  -2.0889833808340003e-01 6.3681129058075853e-02 -1.4085874794320774e-01 6.3681129058075867e-02 3.3378095433194382e-01 1.1006764259743905e-01 -1.4085874794320774e-01 1.1006764259743905e-01 9.6838900883036982e-02  -9.2827309743210545e-02 -1.1818573615886487e-03 2.5469607956351975e-01 -1.1818573615886491e-03 1.4192165511258452e-02 -6.4776861213589110e-02 2.5469607956351975e-01 -6.4776861213589110e-02 2.6156201370753129e-01  -8.0819032070740260e-02 3.1817365831329214e-02 2.1647951455364955e-01 3.1817365831329221e-02 -1.9090228475794381e-03 -1.3822276835547320e-01 2.1647951455364955e-01 -1.3822276835547320e-01 2.6416721747861871e-01  -5.9671210869488102e-02 5.9620912650161340e-02 1.8071178160058127e-01 5.9620912650161340e-02 -3.1168801671738400e-02 -1.8182140093304128e-01 1.8071178160058127e-01 -1.8182140093304125e-01 2.7632037002126864e-01  -1.8585366717752714e-02 4.6928350653802645e-02 1.0759136936265935e-01 4.6928350653802645e-02 -6.9363880922964596e-02 -2.2607464704463781e-01 1.0759136936265935e-01 -2.2607464704463781e-01 2.7875322537350017e-01  3.9637116383755742e-04 3.2162385681427319e-02 6.5767372297483792e-02 3.2162385681427319e-02 -9.3476960165802481e-02 -2.4796774678176248e-01 6.5767372297483792e-02 -2.4796774678176248e-01 2.8959434939765560e-01  4.4723239203198172e-03 3.8161723032743853e-03 -2.6435565642138521e-02 3.8161723032743853e-03 -9.9173213575437832e-02 -2.5852552539223556e-01 -2.6435565642138521e-02 -2.5852552539223556e-01 2.9914866497652287e-01  1.1669472119688079e-02 -1.8934582258412450e-02 -8.6808776433846963e-02 -1.8934582258412450e-02 -8.2973648016314294e-02 -2.5410916082463908e-01 -8.6808776433846963e-02 -2.5410916082463902e-01 2.5781795330008073e-01  -1.9963258467647436e-02 -5.2440634550287996e-02 -1.9938024456547712e-01 -5.2440634550287996e-02 -5.2880946197463183e-02 -1.8428346362265077e-01 -1.9938024456547712e-01 -1.8428346362265077e-01 2.8065636264946298e-01  -7.2483167765185319e-02 -4.3495334130390015e-02 -2.5603682083556190e-01 -4.3495334130390015e-02 -2.4355915449082204e-02 -1.0540389608832017e-01 -2.5603682083556190e-01 -1.0540389608832017e-01 3.1042841032804558e-01  8.1395306576380971e-02 3.5465517561993086e-02 3.1437003541924496e-02 3.5465517561993086e-02 -8.3952324356571545e-02 7.5962149790396227e-02 3.1437003541924496e-02 7.5962149790396227e-02 3.3555430316468543e-02  6.9145999672969805e-02 7.4705917876153133e-02 1.5667117803289592e-02 7.4705917876153133e-02 -6.3483938589268291e-02 8.1339389727223779e-02 1.5667117803289589e-02 8.1339389727223779e-02 2.8551481905472662e-02  1.4064802753310783e-02 8.6347667804414580e-02 -1.2999573588759677e-02 8.6347667804414580e-02 -2.0525994623942223e-02 8.5366229374648619e-02 -1.2999573588759677e-02 8.5366229374648619e-02 3.6981510600488682e-02  -2.3127818898523545e-02 9.4589344446604093e-02 -4.6246415291341041e-02 9.4589344446604107e-02 5.1162121730898028e-02 7.6632839132295225e-02 -4.6246415291341041e-02 7.6632839132295225e-02 8.6295351397144855e-03  -6.2382729668489637e-02 6.1240374449628411e-02 -6.4736706962285603e-02 6.1240374449628411e-02 9.5667041113519993e-02 6.9250904952958547e-02 -6.4736706962285603e-02 6.9250904952958547e-02 4.2591446295218507e-03  -8.7195690419722569e-02 2.0633028856947067e-02 -7.6859247485245544e-02 2.0633028856947091e-02 1.0500109529453620e-01 4.8184245186436742e-02 -7.6859247485245544e-02 4.8184245186436742e-02 1.9215428045219141e-02  -7.8861971535144779e-02 -2.3333048704375459e-02 -9.5715532078765792e-02 -2.3333048704375470e-02 1.0570449521921453e-01 3.0657178210635516e-02 -9.5715532078765792e-02 3.0657178210635509e-02 1.5101845557738330e-02  -4.4820411029227188e-02 -7.8273930661208274e-02 -8.2409862182277499e-02 -7.8273930661208274e-02 7.8804681881212008e-02 1.3155241846879271e-03 -8.2409862182277499e-02 1.3155241846879271e-03 -8.6138526173582528e-04  8.8662719105280733e-03 -1.0336250269485958e-01 -8.7556471666751082e-02 -1.0336250269485958e-01 6.1937955101510249e-03 6.4653373369364647e-03 -8.7556471666751054e-02 6.4653373369364681e-03 1.7933259272994901e-02  5.0951181589151351e-02 -4.5336446510455819e-02 -8.0244591791170841e-02 -4.5336446510455826e-02 -7.5675121331159889e-02 -2.7149532405371695e-02 -8.0244591791170855e-02 -2.7149532405371702e-02 4.4564614688532400e-02  1.2606695512997840e-01 -6.5379348303604229e-02 -6.1752215975940661e-02 -6.5379348303604215e-02 -1.1088488908602516e-01 -4.3999776868919559e-02 -6.1752215975940661e-02 -4.3999776868919566e-02 2.7706199016135458e-02  2.0421804033586149e-01 -4.2499822442166796e-02 -7.3232326888149193e-02 -4.2499822442166831e-02 -1.7196787545529316e-01 -9.9975949477055279e-02 -7.3232326888149221e-02 -9.9975949477055279e-02 7.8411553688886471e-02  1.9997677337054545e-01 -3.0811956156092345e-02 -6.5199809223268665e-02 -3.0811956156092352e-02 -1.0506063020359062e-01 -1.5605408774440255e-01 -6.5199809223268665e-02 -1.5605408774440249e-01 2.1953591324840160e-02  1.6918145931795983e-01 -7.9620058846007914e-03 -3.6234470116319938e-02 -7.9620058846007914e-03 -7.9525341472142186e-02 -1.3279230264578873e-01 -3.6234470116319938e-02 -1.3279230264578873e-01 -1.6741800331797164e-02  1.4485364957157940e-01 -5.4847367623648158e-04 -2.8749708486919854e-02 -5.4847367623647985e-04 -1.1577913366047422e-01 -8.9935877767917533e-02 -2.8749708486919847e-02 -8.9935877767917533e-02 2.1738482518945404e-02  1.2172139541468041e-01 -3.1062214840046558e-02 -4.8924559087525930e-02 -3.1062214840046558e-02 -1.5201838563203779e-01 -5.6894544125771752e-02 -4.8924559087525930e-02 -5.6894544125771752e-02 9.1373675598111992e-02  9.4476738446983274e-02 -3.3297255911893343e-02 -3.9240542454334004e-02 -3.3297255911893336e-02 -1.4847142152394122e-01 -2.7621870970012209e-02 -3.9240542454334004e-02 -2.7621870970012216e-02 1.0271009902061430e-01  6.3639714691643146e-02 -4.9124491431389535e-02 -6.9648663769144633e-03 -4.9124491431389535e-02 -1.0527731645057152e-01 3.9446299328219518e-02 -6.9648663769144624e-03 3.9446299328219539e-02 6.6460602659096008e-02  4.9028568160750047e-02 -7.4297163518131579e-02 -3.5487973241847635e-04 -7.4297163518131593e-02 -8.4651291092280340e-02 1.1667091417207354e-01 -3.5487973241847608e-04 1.1667091417207354e-01 8.9999545505037443e-02  4.6419056881483040e-02 -6.1071736928251609e-02 -1.2433733776879988e-02 -6.1071736928251630e-02 -1.0071993184083554e-01 1.5293365391805613e-01 -1.2433733776879988e-02 1.5293365391805613e-01 1.3593212093973905e-01  8.9784443919864888e-03 9.9164968580668245e-03 -1.6577047475657976e-02 9.9164968580668245e-03 -2.3143453685593340e-02 1.6808778942641819e-01 -1.6577047475657976e-02 1.6808778942641819e-01 5.7194642673069382e-02  1.3800997121256143e-02 3.2667137218851759e-03 7.5940024868388937e-03 3.2667137218851759e-03 -2.5016942805151862e-02 1.5436912874442418e-01 7.5940024868388937e-03 1.5436912874442418e-01 4.3527371736030322e-02  1.8885970909022897e-02 -8.7909668930876931e-03 3.9502932533937975e-02 -8.7909668930876931e-03 -2.9350218292683722e-02 1.4822975126382382e-01 3.9502932533937975e-02 1.4822975126382382e-01 4.3352242391424010e-02  2.4718704598214868e-02 -2.1484448147465696e-02 5.9579592412299771e-02 -2.1484448147465696e-02 -2.0660531819960300e-02 1.3247572220910100e-01 5.9579592412299771e-02 1.3247572220910100e-01 2.8159690202335656e-02  1.8846867690554301e-02 -1.8023690791123044e-02 8.3892372086822126e-02 -1.8023690791123044e-02 -1.7395573354317271e-02 1.1633188963223226e-01 8.3892372086822126e-02 1.1633188963223226e-01 2.5339548012479791e-02  4.6522345595966332e-02 -1.2332518563436248e-02 7.4955047618608550e-02 -1.2332518563436248e-02 3.4551863513175888e-04 8.7132689239323408e-02 7.4955047618608578e-02 8.7132689239323408e-02 -3.3247055684255733e-02  5.0948100515543028e-02 -1.9501011560694243e-02 8.9141300198693721e-02 -1.9501011560694243e-02 6.2082842833769162e-03 5.1117439367545446e-02 8.9141300198693735e-02 5.1117439367545446e-02 -4.3373267646939405e-02  2.0627008350001728e-02 -3.7942135572047626e-02 1.1846644493832087e-01 -3.7942135572047626e-02 2.0382051924070867e-02 3.9271371926292091e-02 1.1846644493832087e-01 3.9271371926292098e-02 -1.3250591317821588e-02  2.7536567716053142e-02 -4.0677844760897815e-02 1.0759162732792960e-01 -4.0677844760897794e-02 4.2260086818019661e-02 4.5791652067009268e-03 1.0759162732792962e-01 4.5791652067009268e-03 -4.8580320142836877e-02  1.3152082544724318e-02 -4.1942656902441429e-02 1.0878960343943052e-01 -4.1942656902441429e-02 6.0501260738208669e-02 -1.2499918858109223e-02 1.0878960343943049e-01 -1.2499918858109223e-02 -5.1500594568559613e-02  -1.5009553142004773e-02 -2.5072244542348653e-02 1.0025194799604760e-01 -2.5072244542348653e-02 7.1478217155032178e-02 -4.2104730082560091e-02 1.0025194799604760e-01 -4.2104730082560091e-02 -3.4142396438279730e-02  -2.4541789273551336e-02 5.5196717431279874e-03 9.8090533639350580e-02 5.5196717431279874e-03 5.8861170940000131e-02 -5.8969877856799149e-02 9.8090533639350580e-02 -5.8969877856799149e-02 -7.7656903661608252e-03  5.7441498972544795e-03 8.6436685301166348e-03 6.3553171244678922e-02 8.6436685301166348e-03 6.7974408796233357e-02 -6.6097773022433873e-02 6.3553171244678908e-02 -6.6097773022433873e-02 -5.6787950482698128e-02  1.2342013895556418e-02 -3.3783034803371234e-02 -9.5096202597987275e-03 -3.3783034803371234e-02 8.4621521376946618e-02 -8.7716395486203150e-02 -9.5096202597987293e-03 -8.7716395486203150e-02 -8.3973625186525083e-02  -1.7553722456803322e-02 2.7007092784817367e-02 4.5463707371732491e-02 2.7007092784817367e-02 4.9280514822069778e-02 -8.3548488448869293e-02 4.5463707371732491e-02 -8.3548488448869293e-02 -1.2215132425795789e-02  8.6507048898127367e-02 -4.2215230592620626e-02 4.1631123651555885e-02 -4.2215230592620626e-02 -1.0512745166802344e-01 3.8382052828429485e-02 4.1631123651555885e-02 3.8382052828429485e-02 5.0701840948032532e-02  8.5180974981512531e-02 -4.4292741952361242e-02 5.2745019160656402e-02 -4.4292741952361221e-02 -1.1516092979061843e-01 4.3359190391083031e-03 5.2745019160656402e-02 4.3359190391083031e-03 6.0796772863732390e-02  1.0599420856094106e-01 -6.9770658024298424e-02 5.5261531207157780e-02 -6.9770658024298410e-02 -1.3996145045827554e-01 -4.6687085949507785e-03 5.5261531207157780e-02 -4.6687085949507785e-03 8.7296537808288596e-02  1.3719864984626895e-01 -7.0723084833041239e-02 6.0590045853387023e-02 -7.0723084833041239e-02 -1.6406637339769942e-01 1.6776834572738982e-02 6.0590045853387023e-02 1.6776834572738982e-02 1.0423709971503342e-01  1.2568997580616967e-01 -5.9958496916665993e-02 5.8759242736109711e-02 -5.9958496916665986e-02 -1.5977954157627081e-01 3.0215042095380503e-02 5.8759242736109711e-02 3.0215042095380503e-02 1.0587507298806442e-01  1.1404175255204288e-01 -4.6543856362038186e-02 4.5957024406797067e-02 -4.6543856362038186e-02 -1.6083631021849459e-01 2.3792604584669724e-02 4.5957024406797060e-02 2.3792604584669724e-02 1.1028162632578117e-01  8.6895816718014357e-02 -3.8427475988551257e-02 3.6390402763407464e-02 -3.8427475988551257e-02 -1.5384214199600074e-01 1.1046578823554169e-02 3.6390402763407464e-02 1.1046578823554167e-02 1.2123184135155636e-01  5.8788685916020295e-02 -3.6070196304407408e-02 6.5126598292133520e-02 -3.6070196304407408e-02 -1.3641061114621139e-01 -9.1006049459669489e-03 6.5126598292133520e-02 -9.1006049459669489e-03 1.2053628362559445e-01  4.5468666126486541e-02 -2.1668096017719393e-02 7.1216843068273028e-02 -2.1668096017719390e-02 -5.2263837242631082e-02 -6.7156824545789081e-03 7.1216843068273028e-02 -6.7156824545789081e-03 1.2358257422439895e-02  1.5231801447729984e-01 5.2492412382139003e-02 -3.5262730721192764e-02 5.2492412382139003e-02 -1.3589019607387504e-01 -7.2419214884370225e-02 -3.5262730721192764e-02 -7.2419214884370225e-02 3.9506742567533198e-02  1.2522160089507040e-01 1.3294162889008429e-01 -1.2648711452064644e-02 1.3294162889008429e-01 -9.8448807801695279e-02 -7.8754508841596002e-02 -1.2648711452064644e-02 -7.8754508841596030e-02 4.0711378615047325e-02  3.8511500511664680e-02 1.5714269235032843e-01 1.3729117222636445e-02 1.5714269235032843e-01 -3.6316806270942824e-02 -7.5930790856382699e-02 1.3729117222636438e-02 -7.5930790856382699e-02 6.0692113225358231e-02  -5.2791816996861980e-02 1.5397162156099342e-01 3.1035191100550627e-02 1.5397162156099342e-01 5.6222278405028393e-02 -7.2214813115945048e-02 3.1035191100550637e-02 -7.2214813115945048e-02 6.0739112931352639e-02  -1.0956266348153011e-01 9.5010626232883630e-02 4.9239914288055173e-02 9.5010626232883630e-02 8.8629250736828327e-02 -6.8916289703340988e-02 4.9239914288055173e-02 -6.8916289703340988e-02 7.5262086434352157e-02  -1.2199460671006881e-01 3.5058189434253317e-02 7.0918681897567878e-02 3.5058189434253317e-02 1.1935186281103724e-01 -5.0583200983316839e-02 7.0918681897567851e-02 -5.0583200983316839e-02 5.2663976168913128e-02  -9.7306549250609484e-02 -3.6102202628236157e-02 8.5310534688939149e-02 -3.6102202628236157e-02 9.8436817625086409e-02 -2.9673923660592176e-02 8.5310534688939149e-02 -2.9673923660592173e-02 3.6837898946167416e-02  -9.2247680701508628e-02 -5.5019559212772379e-02 7.1382669317612932e-02 -5.5019559212772372e-02 6.9193943484346598e-02 -2.4582446089053210e-02 7.138266