<?xml version="1.0"?>
<VTKFile type="UnstructuredGrid"  version="0.1"  >
<UnstructuredGrid>
<Piece  NumberOfPoints="1268" NumberOfCells="4847">
<Points>
<DataArray  type="Float64"  NumberOfComponents="3"  format="ascii">1.994716987487452 0.01317707561264319 -1.202466945460223e-11  1.374072606111497 -0.08614134488653273 -5.388997575085332  -1.285941478930618 0.1916557790035214 -5.691288663606836  -1.59032616235459 -0.4515196446136259 1.626303258728257e-17  0.4950030257755884 2.521650519233041 -5.495391852657774  -0.4107718940653654 -2.429115409112172 -5.58531208084276  -0.9314707163843408 -3.006923447963563 4.87890977618477e-17  1.161824811771535 2.948440156756841 -3.391384395534658e-14  2.146749234505421 0.002696741478414759 -0.5615078450779066  2.330988047973839 -0.000873250973709995 -1.113141311680313  2.540713632977715 -0.1384292375506191 -1.637427654548237  2.645241452520652 -0.2872312815961211 -2.18637082393926  2.504842461151312 -0.2752146673621067 -2.746850782899552  2.287876352721185 -0.2088259978706829 -3.283011632728322  2.137771360922677 -0.2093380261300688 -3.844996501809416  1.970142554575494 -0.2193701374385486 -4.401638277082749  1.701580801829277 -0.1696632515169769 -4.915066532844666  1.398049690886424 0.4419377546899956 -5.387643705321969  1.183972204621215 0.9208338616597355 -5.413149504812257  0.7621482426349403 1.234356207118232 -5.461782499987256  0.2539805730796886 1.370727420898931 -5.519751404145364  -0.2689415860383004 1.319053689498898 -5.578906487138381  -0.7357170559581984 1.076180709179107 -5.631191713357971  -1.086003096318238 0.6812820615514149 -5.669884670156524  -1.65706961757681 -0.5275128747266272 -0.6240725009925172  -1.829082870387909 -0.8347372240299333 -1.153553189134448  -2.030635262011336 -1.097965926806997 -1.693320688638939  -2.148557703924963 -0.9683820133813712 -2.295450526931833  -2.119047321408695 -0.7521727279271558 -2.890676896601294  -1.972500555455803 -0.7106310836492745 -3.509380855831461  -1.885028119342598 -0.4902108162504233 -4.093718100793141  -1.832050776792238 -0.1313823297003599 -4.617858136599065  -1.636180550340053 0.1151199882480144 -5.165527944859976  -1.540434086810702 0.1014447694855235 -7.644826989049428e-17  -1.339902801239663 0.6191128040412099 2.218327606354497e-17  -0.9949589579071262 1.053322092476122 2.12059320661159e-17  -0.5243975458638882 1.346285776146202 7.754217898549941e-16  0.01399251627036286 1.481823287560149 3.252316763596149e-17  0.5696211504784076 1.47677978548424 -7.207855520904863e-17  1.105448032340458 1.331487337928338 1.951563910473908e-16  1.561367740818086 1.018090979386763 -2.179459114756194e-16  1.860006992193919 0.551530302300456 1.369433074745588e-16  -0.152869286718376 2.506583809965366 -5.568804938302105  -0.7781210310064858 2.335338381675429 -5.639249366957451  -1.340550096787874 2.011723800088065 -5.702178028336585  -1.803922993566052 1.555830170950866 -5.753534898075912  -2.144678763029901 1.000979069722826 -5.790734833138769  -2.346903237737564 0.3811866585909049 -5.812061421922149  -2.406990243842066 -0.2684488461825228 -5.817196438260218  -2.318433628103212 -0.9144163570965761 -5.805488779558074  -2.059391262210163 -1.511004864267824 -5.774580158166454  -1.615755841275718 -1.983465489741105 -5.72306417450185  -1.043145925381342 -2.287058241276404 -5.657361969815248  -0.6986882361605687 -2.420627649803484 -5.024556445072709  -0.8272574030199392 -2.685291244074475 -4.476216325063944  -0.8113210073272845 -3.118860027310894 -4.01596683617901  -0.7618552434953355 -3.481598098596065 -3.504026669625047  -0.7509882165597778 -3.609083979854663 -2.886473298216772  -0.7986167670519319 -3.732483084086931 -2.268445488219849  -0.8276969497603353 -3.810997815301134 -1.64593496945388  -0.7425506523451623 -3.557242155569485 -1.078322423839125  -0.7147449622328144 -3.21189056194362 -0.5511080601316157  -1.482234509376526 -2.778582553401298 -5.854479658363816e-16  -1.970737176894139 -2.437284655419533 2.764697292186607e-16  -2.362818572203899 -1.988727212877528 2.439101268600111e-16  -2.642390785384022 -1.462244173776716 5.051059276813266e-16  -2.812149102113852 -0.89052423419162 2.276851973687203e-16  -2.877946727920729 -0.2976446157883296 -1.219909928720168e-16  -2.842947107925845 0.2978601752284433 4.065446096494693e-17  -2.70313036896374 0.8776122116387211 -5.041496169361013e-16  -2.452324348076021 1.418519584933707 4.379274460317988e-16  -2.098265626135573 1.898294456130726 1.951060033519619e-16  -1.658391347368763 2.301023318502569 -1.789574489620802e-16  -1.154148079923361 2.619757341302747 -2.081203863085907e-15  -0.6042202207747882 2.851073703499478 -3.577841418755692e-16  -0.02416138323675775 2.990516581461941 4.065982498622179e-16  0.5710641261211448 3.028216945076794 -1.46882551317968e-16  0.6414151130412097 2.696325287154043 -4.983333021490838  0.771852374565919 2.778456367279237 -4.445188759107248  0.8805845204306011 2.73078881179073 -3.897720120696569  0.9481597620953167 2.69798349057175 -3.343104559074628  0.9815370707090804 2.778214865778854 -2.789250505759619  1.013475345489448 2.861817704396183 -2.235671116027784  1.055849759321274 2.898356228459238 -1.677594140621302  1.093646323460014 2.92793989028903 -1.118725590781912  1.124098871622056 2.957526991478201 -0.5594169689370629  0.2477015793419729 -2.415655802610486 -5.510682951113449  0.8844491790088972 -2.245867158009595 -5.438931443942415  1.464891069119211 -1.932330028996181 -5.373934600293736  1.955087092649627 -1.489613175355717 -5.319502697776375  2.318355026965356 -0.937054784961175 -5.279744576064058  2.524994411863564 -0.307899182343253 -5.257941630215678  2.574632820450045 0.3531084349228537 -5.254020561031156  2.465743861849647 1.006614152640354 -5.268052816559671  2.183897076015212 1.604484044160622 -5.301550147358176  1.722560240631265 2.07491696755195 -5.35506775502591  1.13806318635062 2.378906583716481 -5.422118662603529  1.742182153284979 2.73179858498085 5.854691697147836e-16  2.262480931380501 2.395264875892136 -2.601681534737615e-16  2.698000706832733 1.954727370266727 -3.903113804560263e-16  3.021530388777258 1.426473918441798 1.707421408502106e-16  3.223363606607101 0.8405687193648443 -2.844806418042028e-16  3.305434793487241 0.2261994274297442 -4.472186606099012e-16  3.269241566985055 -0.3926051469820059 3.171555149681837e-16  3.113478077610213 -0.9924495549400153 3.510830505762065e-16  2.840400132149515 -1.548806515270482 -1.707368614952523e-16  2.466120284856568 -2.042983582774378 9.732831365154574e-17  2.008125599488538 -2.460814027017948 -3.577575055983979e-16  1.482521285196868 -2.789563899556613 -4.886146623064541e-17  0.9057866143556688 -3.01678997208197 -2.439392613813594e-16  0.2964958724913082 -3.130681163554852 3.414395345104792e-16  -0.32338307292875 -3.126978161260848 2.926910878106614e-16  -1.29067345658392 -0.3506098753383553 -5.690421630247788  -1.068897680254163 -0.8451623229646739 -5.663999894259847  -0.6782440885714781 -1.219621806060448 -5.6187489875115  -0.168757542531344 -1.390394566692369 -5.560546895724229  0.3611301401510615 -1.294122251639114 -5.500717901478111  0.8191548613516448 -1.005201308695582 -5.449538098373106  1.16817203978903 -0.5892762115769014 -5.411042670828763  1.960898302630318 -0.551652302616722 -8.131516293641286e-17  1.751009740180289 -1.077278642631261 7.445724005953314e-16  1.394016468000002 -1.516729095803803 1.136104663605282e-15  0.9227767039454898 -1.830301465573364 3.434443593283319e-16  0.3780412068884804 -1.984007749105097 8.617772484356591e-16  -0.1885780664025548 -1.977994130030172 2.357202029695971e-16  -0.7327557451871473 -1.821291124380143 1.942410916395698e-17  -1.191068596016128 -1.491774666596192 2.975009434367945e-16  -1.480405544894888 -1.006855825633415 6.954512630084263e-16  -1.812414118534285 0.2561131097252937 -2.664867827914479  2.421751940242729 0.6298287624476981 -1.933377861698098  0.7556418177061754 1.42269463362527 -4.617654324361507  0.003134751711410342 1.574821943356493 -0.9318675177876981  1.015098001669947 1.51699057942374 -0.9441494884276413  0.6193243625380082 1.764115149411371 -1.862230514405671  -0.4757031201037318 1.549728101933577 -1.958273018773558  0.1126459993007786 1.698838152590054 -2.957602797129454  -0.3405660022430232 1.569615851499001 -4.678135257405353  1.818199099779932 0.7365610114574719 -3.763003518505052  -0.9541815370276669 1.23451227632913 -2.875526912859068  -1.269464226480212 1.016489154450913 -4.672047638709048  1.301562892980348 1.557566760682666 -2.802482532053872  -0.7813756340336595 1.414221906310649 -3.725761628685261  -1.58370798409762 0.5643609111372817 -3.581008460136619  -0.988817348255397 1.158392548936659 -1.014254585170146  -1.607700527190565 0.2800106654898483 -1.030081240453645  -1.388203055800784 0.7951310659851955 -1.943712885648593  0.8261955720421881 1.570157055202129 -3.620947225245673  1.681455131778566 1.410849015379531 -1.876189895849114  1.878739160554727 0.943024132521903 -0.9866418074548234  2.103426639579445 1.000735947836943 -2.593434794762663  1.62623803052506 0.6468498306152269 -4.727220189271843  -1.882943490361709 -0.1546739965127431 -1.761716647663214  0.05868355051519467 1.656538949473053 -3.863342338366238  2.465845305360337 0.2632819454094029 -2.663569745038379  1.994842599423799 0.5019775153043848 -0.4779055074204815  2.1671824130763 0.4980244878585698 -1.027636182799239  1.710213566460811 0.9718796190568162 -0.4957578884333736  1.845584590132108 0.2253887364997403 -4.583879812097906  1.579035044615276 0.2924902970866011 -5.101748935835201  1.409777182251665 0.7868327264427526 -5.07202467441607  -1.039178737375989 1.089168173550246 -5.170746090958521  -1.377687418630729 0.6683636420802941 -5.233117919580046  -1.641402128985454 0.4875654733502939 -4.648722230221863  -1.765467255797776 -0.2695484060062747 -1.079683539430899  -1.617858736076732 -0.08318463488274264 -0.5123563299218489  -1.474019211051276 0.4496529111656123 -0.5150171376928306  2.417677350191343 0.3274903893149403 -1.506992657970159 
[...]
<PointData  Tensors="strain"> 
<DataArray  type="Float64"  Name="strain"  NumberOfComponents="9" format="ascii">-4.3998475533767470e-02 -9.7340180580188194e-03 -3.0293666957716131e-01 -9.7340180580188194e-03 1.1869095422838635e-02 -4.5455372839362782e-02 -3.0293666957716131e-01 -4.5455372839362782e-02 2.3729946159871862e-01  -1.9117516006402052e-01 5.2882637995039769e-02 1.5365704925110804e-01 5.2882637995039769e-02 3.9849962514863524e-01 -8.6317240947559368e-02 1.5365704925110801e-01 -8.6317240947559368e-02 2.7311787229038587e-02  -1.4660714626115773e-01 8.1645486060030859e-02 -1.8521095477352892e-01 8.1645486060030859e-02 3.7347597604743576e-01 9.7165759661105411e-02 -1.8521095477352892e-01 9.7165759661105411e-02 1.3255860255555019e-02  -6.5857772503615172e-02 -3.8143283684665123e-02 2.8313731739350922e-01 -3.8143283684665123e-02 3.3385199884610186e-03 -2.6289194616808041e-02 2.8313731739350922e-01 -2.6289194616808041e-02 2.6587906082809482e-01  9.9162389587514888e-02 -1.1138914993920708e-02 6.0345782417454509e-02 -1.1138914993920706e-02 -9.6986379734163491e-02 6.1881386765918138e-02 6.0345782417454509e-02 6.1881386765918138e-02 3.3032248529190282e-02  1.7688331858548037e-01 -7.5167102751567284e-03 -5.4194101269138130e-02 -7.5167102751567249e-03 -1.5687229093354765e-01 -4.1383706118298051e-02 -5.4194101269138130e-02 -4.1383706118298051e-02 3.8831137470973297e-02  -1.8238142391829211e-03 1.0262235263536675e-02 -4.7606305688528229e-02 1.0262235263536675e-02 -1.7746036366506932e-02 1.9250157191726722e-01 -4.7606305688528229e-02 1.9250157191726722e-01 8.6761548196657379e-02  6.5582647966750699e-03 2.9301016110245545e-02 6.0825563996275887e-02 2.9301016110245545e-02 4.8020436760805613e-02 -9.1673883942080148e-02 6.0825563996275887e-02 -9.1673883942080148e-02 -3.3575100349392463e-02  -1.9160174111061695e-01 -4.5407840602728199e-02 -1.7126614318178413e-01 -4.5407840602728178e-02 2.0036666723227717e-01 -8.7125650589117656e-02 -1.7126614318178413e-01 -8.7125650589117656e-02 1.8231857523653791e-01  -2.2496055870498155e-01 -6.2283677275387250e-02 -1.3601922054460852e-01 -6.2283677275387257e-02 2.8384867938745789e-01 -6.7247977854977908e-02 -1.3601922054460849e-01 -6.7247977854977908e-02 1.5382494682915912e-01  -2.5883944764193423e-01 -1.0660568705248832e-02 -1.1707864894521441e-01 -1.0660568705248832e-02 3.0915755983408333e-01 -3.6213857376728213e-02 -1.1707864894521441e-01 -3.6213857376728206e-02 1.7677295618631667e-01  -2.8400595917206023e-01 2.8843616900682097e-02 1.9011334672495762e-03 2.8843616900682101e-02 2.9613004948529759e-01 -5.7825083163051932e-02 1.9011334672495762e-03 -5.7825083163051932e-02 2.2286780048562857e-01  -2.4226213218659043e-01 -4.3208360691818232e-03 1.3542953168641084e-01 -4.3208360691818302e-03 3.5507919365207613e-01 -7.5270573296412194e-02 1.3542953168641086e-01 -7.5270573296412194e-02 1.2852129483192745e-01  -2.3354577427001982e-01 -4.7579936107489507e-02 1.1990607471892185e-01 -4.7579936107489507e-02 4.0896882575928212e-01 -2.6790465726935345e-02 1.1990607471892185e-01 -2.6790465726935345e-02 6.2500371177132058e-02  -2.4787815714080827e-01 -1.5455174908768082e-02 1.0483790546110919e-01 -1.5455174908768082e-02 4.2025872192552632e-01 -1.6597652831242444e-02 1.0483790546110919e-01 -1.6597652831242444e-02 6.8371760437056547e-02  -2.2574487517983691e-01 9.6433195526748564e-03 1.3771364858404608e-01 9.6433195526748564e-03 3.9481095524678744e-01 -4.4462559776875930e-02 1.3771364858404608e-01 -4.4462559776875930e-02 6.4588301922952673e-02  -1.7774836920571122e-01 3.8784792845169537e-02 1.7789100515239104e-01 3.8784792845169544e-02 3.8839275603004558e-01 -5.9855500498991493e-02 1.7789100515239104e-01 -5.9855500498991493e-02 2.9218712570443270e-02  -1.5683938322052343e-01 -1.4066836723944856e-01 1.8919135263739834e-01 -1.4066836723944856e-01 3.2208774095011306e-01 -1.5082004309279941e-02 1.8919135263739834e-01 -1.5082004309279941e-02 6.5837347191820925e-02  1.8581755307049742e-02 -2.8671671163974061e-01 1.5029371369532149e-01 -2.8671671163974061e-01 1.2657812852238634e-01 6.1230224451795663e-02 1.5029371369532149e-01 6.1230224451795663e-02 8.7478148201821163e-02  2.2845313605144688e-01 -2.2763485171352452e-01 1.1417268753225791e-01 -2.2763485171352452e-01 -1.1158960810200370e-01 1.2237361264164649e-01 1.1417268753225791e-01 1.2237361264164649e-01 1.1372730207830860e-01  3.1799387805359358e-01 -5.4599483972943459e-02 6.9963505728541556e-02 -5.4599483972943459e-02 -2.0231883524584587e-01 1.7609258702216413e-01 6.9963505728541556e-02 1.7609258702216413e-01 1.1763901892372310e-01  2.8652460457537948e-01 1.2591960671897715e-01 -9.3834310254936135e-03 1.2591960671897717e-01 -1.5082528928276298e-01 2.1081055287251069e-01 -9.3834310254936118e-03 2.1081055287251069e-01 1.0200175221312272e-01  1.4075440691699684e-01 2.4274541250527035e-01 -7.8867445765391050e-02 2.4274541250527035e-01 1.5560404748419973e-02 1.9816194564595657e-01 -7.8867445765391050e-02 1.9816194564595657e-01 7.6741079185163749e-02  -3.1028053085589629e-02 2.2335221160398494e-01 -1.3961567741225914e-01 2.2335221160398491e-01 2.1633912554655707e-01 1.6385319562006093e-01 -1.3961567741225914e-01 1.6385319562006093e-01 4.9626123159217751e-02  -2.0714787774800017e-01 -2.0622292449562263e-02 1.6045933396810480e-01 -2.0622292449562263e-02 1.7540452163242023e-01 1.5474044589575579e-02 1.6045933396810480e-01 1.5474044589575575e-02 2.0541520487174500e-01  -2.1392118711479724e-01 -4.2901857251845602e-02 1.4170623615275338e-01 -4.2901857251845602e-02 2.7189562695788988e-01 1.0667169152941578e-02 1.4170623615275338e-01 1.0667169152941578e-02 1.3233672569282742e-01  -2.4364514988636424e-01 -4.1102121953579936e-02 1.2443032528213921e-01 -4.1102121953579936e-02 2.8413040381677290e-01 3.1932544799320700e-02 1.2443032528213921e-01 3.1932544799320700e-02 1.7394836644247461e-01  -2.8457679243328154e-01 -1.5295773545661090e-02 2.5631363268439462e-02 -1.5295773545661097e-02 3.1615299342423708e-01 5.8096645026902809e-02 2.5631363268439455e-02 5.8096645026902802e-02 1.9932743589323451e-01  -2.7983497405580843e-01 6.6698725651787531e-03 -5.0581447167404363e-02 6.6698725651787557e-03 3.4970509410140077e-01 9.5769338179805416e-02 -5.0581447167404356e-02 9.5769338179805430e-02 1.6819410050418684e-01  -2.6031491012457170e-01 -2.1129218826905612e-02 -6.9958070559644495e-02 -2.1129218826905612e-02 3.8836412629035449e-01 1.1321025233546729e-01 -6.9958070559644508e-02 1.1321025233546729e-01 1.0685246139689643e-01  -2.7007758125759529e-01 -1.2182151592917698e-02 -5.0485306115064160e-02 -1.2182151592917698e-02 3.8626406694258608e-01 1.2735931522653557e-01 -5.0485306115064160e-02 1.2735931522653557e-01 1.2092112197275577e-01  -2.7191060321139732e-01 4.9332148366797154e-02 -6.7495979218774801e-02 4.9332148366797161e-02 3.6307150527677540e-01 1.1160938725458223e-01 -6.7495979218774801e-02 1.1160938725458222e-01 1.5183540927305075e-01  -2.1495573600627244e-01 6.8506414995117754e-02 -1.4835433858794744e-01 6.8506414995117740e-02 3.5387091679194133e-01 1.1473287442283810e-01 -1.4835433858794744e-01 1.1473287442283812e-01 1.0704507271259699e-01  -9.0843659115525000e-02 -2.3795358992198612e-03 2.7408435925360797e-01 -2.3795358992198573e-03 1.4500856438681015e-02 -6.5754117358256731e-02 2.7408435925360802e-01 -6.5754117358256731e-02 2.8171703496518175e-01  -8.1390168022176732e-02 3.1899140464428391e-02 2.3343051799518813e-01 3.1899140464428405e-02 -6.6137247656840011e-04 -1.4475273497079086e-01 2.3343051799518813e-01 -1.4475273497079086e-01 2.8654676608790480e-01  -5.9156243533288515e-02 5.8098056536914272e-02 1.9621505210508652e-01 5.8098056536914272e-02 -3.0204432327852790e-02 -1.9336002157944657e-01 1.9621505210508652e-01 -1.9336002157944657e-01 2.9727789855395814e-01  -1.8541211899868345e-02 4.7275143093273797e-02 1.1879215008727907e-01 4.7275143093273797e-02 -7.0248353467724692e-02 -2.3947007241791243e-01 1.1879215008727907e-01 -2.3947007241791243e-01 3.0297003768955649e-01  4.1287182203804249e-04 3.1727234723014010e-02 7.3721457137341226e-02 3.1727234723014010e-02 -9.2229923477180870e-02 -2.6503000786966607e-01 7.3721457137341226e-02 -2.6503000786966607e-01 3.1150118126629256e-01  4.6060978034319546e-03 4.7626311359737165e-03 -2.3646179440804868e-02 4.7626311359737165e-03 -9.9585182355848428e-02 -2.7651913851409771e-01 -2.3646179440804868e-02 -2.7651913851409771e-01 3.2348531864641894e-01  1.1756062981544191e-02 -1.7984652222890550e-02 -9.0304659105862634e-02 -1.7984652222890550e-02 -8.0171350408963629e-02 -2.7429277332332397e-01 -9.0304659105862634e-02 -2.7429277332332397e-01 2.7843429705451561e-01  -1.9615538555973748e-02 -5.2876241747301780e-02 -2.0767410372238446e-01 -5.2876241747301780e-02 -5.4136217338880840e-02 -2.0039241283464604e-01 -2.0767410372238446e-01 -2.0039241283464604e-01 3.0643971656914792e-01  -7.3147767540119812e-02 -4.3731054313882863e-02 -2.6919565439977433e-01 -4.3731054313882863e-02 -2.4530973371533534e-02 -1.1866016195795956e-01 -2.6919565439977433e-01 -1.1866016195795956e-01 3.3660459594822989e-01  8.7686342058746689e-02 3.7088157553713086e-02 3.0848465308167622e-02 3.7088157553713086e-02 -9.0505978531012485e-02 8.1000836526975414e-02 3.0848465308167622e-02 8.1000836526975414e-02 3.8564325364827443e-02  7.2904873470726245e-02 7.8997503401650571e-02 1.3639752870335840e-02 7.8997503401650571e-02 -6.5684954998386377e-02 8.6926724456879906e-02 1.3639752870335838e-02 8.6926724456879906e-02 3.1357320209698329e-02  1.6592117332520428e-02 9.2395523134981103e-02 -1.7168896578437468e-02 9.2395523134981089e-02 -2.1543061159611594e-02 9.0605687191957870e-02 -1.7168896578437468e-02 9.0605687191957870e-02 4.0610147594868071e-02  -2.2269793458115923e-02 1.0052870359813372e-01 -5.0282396007467693e-02 1.0052870359813380e-01 5.3233661214102584e-02 8.1527692820226205e-02 -5.0282396007467693e-02 8.1527692820226205e-02 1.0924854997779065e-02  -6.4023126800935512e-02 6.4800169854139611e-02 -6.9938059028374328e-02 6.4800169854139597e-02 9.9395420110857891e-02 7.2813473496773071e-02 -6.9938059028374328e-02 7.2813473496773057e-02 6.6394074465306232e-03  -9.1433961824823037e-02 2.2340707411269471e-02 -8.2689471593989261e-02 2.2340707411269475e-02 1.1122120663478592e-01 5.0340744157451031e-02 -8.2689471593989261e-02 5.0340744157451052e-02 2.2297153145495532e-02  -8.2580948108023772e-02 -2.4099173586952752e-02 -1.0302882388738453e-01 -2.4099173586952752e-02 1.1339405879651049e-01 3.1796111114644213e-02 -1.0302882388738459e-01 3.1796111114644213e-02 1.7334428336098204e-02  -4.6528340202802054e-02 -8.2148863914803111e-02 -8.8676764963194626e-02 -8.2148863914803111e-02 8.3209678502143891e-02 3.1484003720563526e-04 -8.8676764963194613e-02 3.1484003720563553e-04 9.1193714068766533e-04  1.1408074087777342e-02 -1.1049959929345200e-01 -9.2753925266760170e-02 -1.1049959929345200e-01 6.8157266034743402e-03 3.5417708676462761e-03 -9.2753925266760170e-02 3.5417708676462787e-03 1.9395786809249489e-02  5.4914878446413171e-02 -5.0301178791489980e-02 -8.2838551740137226e-02 -5.0301178791489980e-02 -7.9597724211850296e-02 -3.2937024058619882e-02 -8.2838551740137226e-02 -3.2937024058619882e-02 4.8323862156956589e-02  1.3295827078397340e-01 -7.1724425622963883e-02 -6.2389350720339583e-02 -7.1724425622963897e-02 -1.1643028505320593e-01 -4.6829074674855933e-02 -6.2389350720339583e-02 -4.6829074674855933e-02 3.1424186324510731e-02  2.1404964615834332e-01 -4.4919666780496442e-02 -7.5983969602439222e-02 -4.4919666780496442e-02 -1.7714890232671313e-01 -1.0575076936328354e-01 -7.5983969602439208e-02 -1.0575076936328354e-01 8.4164892325442428e-02  2.0955978050551449e-01 -3.4724019424709131e-02 -6.7945946669487015e-02 -3.4724019424709131e-02 -1.0750308076945569e-01 -1.6277139036476543e-01 -6.7945946669487015e-02 -1.6277139036476543e-01 2.5718575402575102e-02  1.7908838852198017e-01 -9.3728710236396368e-03 -3.6876565527504158e-02 -9.3728710236396420e-03 -8.2289216483732983e-02 -1.4061124038780615e-01 -3.6876565527504152e-02 -1.4061124038780612e-01 -1.5252751534696045e-02  1.5313534063985101e-01 -2.9986266033513089e-03 -2.9526617291967667e-02 -2.9986266033513020e-03 -1.2229115279011979e-01 -9.5929848674715809e-02 -2.9526617291967663e-02 -9.5929848674715809e-02 2.7016203760155077e-02  1.2878987919783058e-01 -3.3868892342034954e-02 -4.9477060055022240e-02 -3.3868892342034954e-02 -1.5946788706447049e-01 -6.0869169865199212e-02 -4.9477060055022240e-02 -6.0869169865199212e-02 9.9290564691876040e-02  9.9220971831164087e-02 -3.6059516916403980e-02 -3.9738926604211681e-02 -3.6059516916403980e-02 -1.5674156065697450e-01 -2.8161945172910256e-02 -3.9738926604211681e-02 -2.8161945172910256e-02 1.1293836173287647e-01  6.7943567276862377e-02 -5.2945277570716820e-02 -6.9550773874664648e-03 -5.2945277570716820e-02 -1.1346674768270205e-01 4.2852806534855195e-02 -6.9550773874664648e-03 4.2852806534855202e-02 7.5837443115420650e-02  5.3642007227057087e-02 -7.6548518597627804e-02 -2.3061426540584208e-04 -7.6548518597627804e-02 -9.1604967966096448e-02 1.2215244050813027e-01 -2.3061426540584205e-04 1.2215244050813027e-01 9.9356466152825326e-02  4.8881345371429824e-02 -6.4979583745341518e-02 -9.7265136659593476e-03 -6.4979583745341518e-02 -1.0455885700685263e-01 1.6157958740990253e-01 -9.7265136659593458e-03 1.6157958740990253e-01 1.4726207469737640e-01  6.4233527615273865e-03 8.3604915019858585e-03 -1.1709669288928835e-02 8.3604915019858585e-03 -2.2764442391864634e-02 1.8197641320472532e-01 -1.1709669288928835e-02 1.8197641320472532e-01 6.7569821191844945e-02  1.0759171768793326e-02 2.9381402945658115e-03 1.4126285713272593e-02 2.9381402945658089e-03 -2.4893499734564312e-02 1.6689713211430010e-01 1.4126285713272593e-02 1.6689713211430010e-01 5.3425172242733708e-02  1.5467887180538445e-02 -8.3585886615322718e-03 4.7292393241738361e-02 -8.3585886615322735e-03 -2.9105602504657900e-02 1.5971468010495754e-01 4.7292393241738347e-02 1.5971468010495754e-01 5.3439380464285854e-02  2.1238074227850064e-02 -2.1351928106246396e-02 6.8548470538571840e-02 -2.1351928106246396e-02 -1.9263363210855210e-02 1.4308119818911080e-01 6.8548470538571840e-02 1.4308119818911083e-01 3.6990319757505039e-02  1.6523453235102264e-02 -1.6943769170530077e-02 9.4205086581420613e-02 -1.6943769170530077e-02 -1.7250626915994601e-02 1.2380231837167183e-01 9.4205086581420613e-02 1.2380231837167183e-01 3.3079498624815247e-02  4.5374939273200063e-02 -1.1393213205441998e-02 8.6811275806025434e-02 -1.1393213205441998e-02 4.7593815178640465e-04 9.3298707785296447e-02 8.6811275806025379e-02 9.3298707785296489e-02 -2.8261022741036000e-02  5.0281569346424949e-02 -1.9567392209999375e-02 1.0125809086683467e-01 -1.9567392209999375e-02 6.5146228107343367e-03 5.4439532020572286e-02 1.0125809086683464e-01 5.4439532020572286e-02 -3.9471958865665915e-02  2.1476761477953115e-02 -3.7615989134952024e-02 1.3202044449714259e-01 -3.7615989134952024e-02 2.0178525556093962e-02 3.9303485751302270e-02 1.3202044449714259e-01 3.9303485751302270e-02 -8.6732051123075103e-03  2.9341869961048341e-02 -4.0871256634102904e-02 1.1990237477132976e-01 -4.0871256634102904e-02 4.2078005441358833e-02 2.0356763465693810e-03 1.1990237477132976e-01 2.0356763465693810e-03 -4.6352882526790581e-02  1.5168580215945037e-02 -4.2918418940267586e-02 1.1990622364638395e-01 -4.2918418940267586e-02 6.0927478736212605e-02 -1.7228663042291720e-02 1.1990622364638395e-01 -1.7228663042291720e-02 -5.0554734958075699e-02  -1.4233719216884507e-02 -2.6196775982958671e-02 1.1027484496892628e-01 -2.6196775982958671e-02 7.2516290570586339e-02 -4.9821843915731676e-02 1.1027484496892628e-01 -4.9821843915731676e-02 -3.1980684452130037e-02  -2.4566074182389448e-02 4.9775138986643047e-03 1.0659134741492096e-01 4.9775138986643047e-03 5.9547269146179763e-02 -6.8908009379786930e-02 1.0659134741492096e-01 -6.8908009379786930e-02 -3.1743283224415723e-03  7.0309108030237547e-03 8.2894010512210934e-03 6.9800294868354901e-02 8.2894010512210934e-03 6.9346759677324177e-02 -7.6616581212478399e-02 6.9800294868354915e-02 -7.6616581212478399e-02 -5.5605271776783441e-02  1.2460583901241606e-02 -3.4325087705128293e-02 -7.2175715572808967e-03 -3.4325087705128293e-02 8.8984356523528318e-02 -9.7559508338510043e-02 -7.2175715572808993e-03 -9.7559508338510043e-02 -8.5951529145485955e-02  -1.8321460797762028e-02 2.6724835144852181e-02 4.8413985664305340e-02 2.6724835144852181e-02 5.0686536222815562e-02 -9.4819446920556411e-02 4.8413985664305340e-02 -9.4819446920556411e-02 -8.9619430430493471e-03  9.3754552680740219e-02 -4.6171612010490394e-02 4.0749205269405397e-02 -4.6171612010490408e-02 -1.1276615043908365e-01 4.2563197243401275e-02 4.0749205269405397e-02 4.2563197243401275e-02 5.6377286444952081e-02  9.0959911581194958e-02 -4.7077162126929230e-02 5.4178892554585946e-02 -4.7077162126929230e-02 -1.2262979682016883e-01 6.2725739535420717e-03 5.4178892554585932e-02 6.2725739535420717e-03 6.7144995577487043e-02  1.1353251168555252e-01 -7.2755433475527834e-02 5.6810989287752849e-02 -7.2755433475527820e-02 -1.4770324551574082e-01 -3.0164187414485240e-03 5.6810989287752849e-02 -3.0164187414485240e-03 9.4206919875875192e-02  1.4495663000287232e-01 -7.4808999837278817e-02 6.1683511910684746e-02 -7.4808999837278817e-02 -1.7104787016579262e-01 1.8524711333094381e-02 6.1683511910684753e-02 1.8524711333094381e-02 1.1192297162037483e-01  1.3279874979526424e-01 -6.2922744594745644e-02 5.9972086712076371e-02 -6.2922744594745686e-02 -1.6698402878240681e-01 3.2616158607284056e-02 5.9972086712076357e-02 3.2616158607284056e-02 1.1390510186663458e-01  1.2015946774061824e-01 -4.9627016368524526e-02 4.7208220028621656e-02 -4.9627016368524533e-02 -1.6866754380657928e-01 2.4883369796311512e-02 4.7208220028621670e-02 2.4883369796311512e-02 1.1985609585005572e-01  9.3229712493200972e-02 -4.0740916491820343e-02 3.8514171492469919e-02 -4.0740916491820343e-02 -1.6316922128241088e-01 1.1811480024400210e-02 3.8514171492469919e-02 1.1811480024400210e-02 1.3251223451696026e-01  6.3699083103257600e-02 -3.8307773141817471e-02 6.7825003622603394e-02 -3.8307773141817471e-02 -1.4624201796417938e-01 -9.0897932807372187e-03 6.7825003622603380e-02 -9.0897932807372187e-03 1.3279178675628348e-01  4.7864600488904396e-02 -2.5734583806134807e-02 7.3352650475549716e-02 -2.5734583806134807e-02 -6.1330189615914854e-02 -7.7975878181982417e-03 7.3352650475549716e-02 -7.7975878181982417e-03 2.0388359470312683e-02  1.6056353668529236e-01 5.4277201756198080e-02 -3.5085028809466880e-02 5.4277201756198080e-02 -1.4279291937901278e-01 -7.7843127065043718e-02 -3.5085028809466873e-02 -7.7843127065043718e-02 4.4930249559626739e-02  1.3127214084180341e-01 1.3840489380115437e-01 -1.3341110451283934e-02 1.3840489380115437e-01 -1.0322123248586847e-01 -8.4463664397615990e-02 -1.3341110451283925e-02 -8.4463664397615990e-02 4.6890693793283568e-02  4.2209339076702448e-02 1.6447857596676971e-01 1.5646036205914392e-02 1.6447857596676971e-01 -4.0083143776344018e-02 -8.0286630604010409e-02 1.5646036205914392e-02 -8.0286630604010409e-02 6.8516963158933533e-02  -5.3593923700850699e-02 1.6159696713853042e-01 3.4087071481753821e-02 1.6159696713853042e-01 5.9724611925630389e-02 -7.7118612986540047e-02 3.4087071481753821e-02 -7.7118612986540047e-02 6.5639180904858471e-02  -1.1421025308407762e-01 1.0083859114269302e-01 5.4000647082240109e-02 1.0083859114269302e-01 9.5498575928149573e-02 -7.2739728847040663e-02 5.4000647082240109e-02 -7.2739728847040663e-02 8.0535743143023114e-02  -1.2892224486016376e-01 3.7515989659386219e-02 7.6906603920348829e-02 3.7515989659386219e-02 1.2817111489009378e-01 -5.3054667972041933e-02 7.6906603920348815e-02 -5.3054667972041933e-02 5.8583589292867159e-02  -1.0306365533994855e-01 -3.9392675239766681e-02 9.2517361156294053e-02 -3.9392675239766681e-02 1.0517504631444718e-01 -3.0630965036877112e-02 9.2517361156294053e-02 -3.0630965036877116e-02 4.2162474346222695e-02  -9.6782434228600001e-02 -5.9989734738269726e-02 7.9677203163796659e-02 -5.9989734738269726e-02 7.4683765551484191e-02 -2.3897762391169322e-02 7.967720