<?xml version="1.0"?>
<VTKFile type="UnstructuredGrid"  version="0.1"  >
<UnstructuredGrid>
<Piece  NumberOfPoints="1268" NumberOfCells="4847">
<Points>
<DataArray  type="Float64"  NumberOfComponents="3"  format="ascii">1.994716987487452 0.01317707561264319 -1.202466945460223e-11  1.374072606111497 -0.08614134488653273 -5.388997575085332  -1.285941478930618 0.1916557790035214 -5.691288663606836  -1.59032616235459 -0.4515196446136259 1.626303258728257e-17  0.4950030257755884 2.521650519233041 -5.495391852657774  -0.4107718940653654 -2.429115409112172 -5.58531208084276  -0.9314707163843408 -3.006923447963563 4.87890977618477e-17  1.161824811771535 2.948440156756841 -3.391384395534658e-14  2.146749234505421 0.002696741478414759 -0.5615078450779066  2.330988047973839 -0.000873250973709995 -1.113141311680313  2.540713632977715 -0.1384292375506191 -1.637427654548237  2.645241452520652 -0.2872312815961211 -2.18637082393926  2.504842461151312 -0.2752146673621067 -2.746850782899552  2.287876352721185 -0.2088259978706829 -3.283011632728322  2.137771360922677 -0.2093380261300688 -3.844996501809416  1.970142554575494 -0.2193701374385486 -4.401638277082749  1.701580801829277 -0.1696632515169769 -4.915066532844666  1.398049690886424 0.4419377546899956 -5.387643705321969  1.183972204621215 0.9208338616597355 -5.413149504812257  0.7621482426349403 1.234356207118232 -5.461782499987256  0.2539805730796886 1.370727420898931 -5.519751404145364  -0.2689415860383004 1.319053689498898 -5.578906487138381  -0.7357170559581984 1.076180709179107 -5.631191713357971  -1.086003096318238 0.6812820615514149 -5.669884670156524  -1.65706961757681 -0.5275128747266272 -0.6240725009925172  -1.829082870387909 -0.8347372240299333 -1.153553189134448  -2.030635262011336 -1.097965926806997 -1.693320688638939  -2.148557703924963 -0.9683820133813712 -2.295450526931833  -2.119047321408695 -0.7521727279271558 -2.890676896601294  -1.972500555455803 -0.7106310836492745 -3.509380855831461  -1.885028119342598 -0.4902108162504233 -4.093718100793141  -1.832050776792238 -0.1313823297003599 -4.617858136599065  -1.636180550340053 0.1151199882480144 -5.165527944859976  -1.540434086810702 0.1014447694855235 -7.644826989049428e-17  -1.339902801239663 0.6191128040412099 2.218327606354497e-17  -0.9949589579071262 1.053322092476122 2.12059320661159e-17  -0.5243975458638882 1.346285776146202 7.754217898549941e-16  0.01399251627036286 1.481823287560149 3.252316763596149e-17  0.5696211504784076 1.47677978548424 -7.207855520904863e-17  1.105448032340458 1.331487337928338 1.951563910473908e-16  1.561367740818086 1.018090979386763 -2.179459114756194e-16  1.860006992193919 0.551530302300456 1.369433074745588e-16  -0.152869286718376 2.506583809965366 -5.568804938302105  -0.7781210310064858 2.335338381675429 -5.639249366957451  -1.340550096787874 2.011723800088065 -5.702178028336585  -1.803922993566052 1.555830170950866 -5.753534898075912  -2.144678763029901 1.000979069722826 -5.790734833138769  -2.346903237737564 0.3811866585909049 -5.812061421922149  -2.406990243842066 -0.2684488461825228 -5.817196438260218  -2.318433628103212 -0.9144163570965761 -5.805488779558074  -2.059391262210163 -1.511004864267824 -5.774580158166454  -1.615755841275718 -1.983465489741105 -5.72306417450185  -1.043145925381342 -2.287058241276404 -5.657361969815248  -0.6986882361605687 -2.420627649803484 -5.024556445072709  -0.8272574030199392 -2.685291244074475 -4.476216325063944  -0.8113210073272845 -3.118860027310894 -4.01596683617901  -0.7618552434953355 -3.481598098596065 -3.504026669625047  -0.7509882165597778 -3.609083979854663 -2.886473298216772  -0.7986167670519319 -3.732483084086931 -2.268445488219849  -0.8276969497603353 -3.810997815301134 -1.64593496945388  -0.7425506523451623 -3.557242155569485 -1.078322423839125  -0.7147449622328144 -3.21189056194362 -0.5511080601316157  -1.482234509376526 -2.778582553401298 -5.854479658363816e-16  -1.970737176894139 -2.437284655419533 2.764697292186607e-16  -2.362818572203899 -1.988727212877528 2.439101268600111e-16  -2.642390785384022 -1.462244173776716 5.051059276813266e-16  -2.812149102113852 -0.89052423419162 2.276851973687203e-16  -2.877946727920729 -0.2976446157883296 -1.219909928720168e-16  -2.842947107925845 0.2978601752284433 4.065446096494693e-17  -2.70313036896374 0.8776122116387211 -5.041496169361013e-16  -2.452324348076021 1.418519584933707 4.379274460317988e-16  -2.098265626135573 1.898294456130726 1.951060033519619e-16  -1.658391347368763 2.301023318502569 -1.789574489620802e-16  -1.154148079923361 2.619757341302747 -2.081203863085907e-15  -0.6042202207747882 2.851073703499478 -3.577841418755692e-16  -0.02416138323675775 2.990516581461941 4.065982498622179e-16  0.5710641261211448 3.028216945076794 -1.46882551317968e-16  0.6414151130412097 2.696325287154043 -4.983333021490838  0.771852374565919 2.778456367279237 -4.445188759107248  0.8805845204306011 2.73078881179073 -3.897720120696569  0.9481597620953167 2.69798349057175 -3.343104559074628  0.9815370707090804 2.778214865778854 -2.789250505759619  1.013475345489448 2.861817704396183 -2.235671116027784  1.055849759321274 2.898356228459238 -1.677594140621302  1.093646323460014 2.92793989028903 -1.118725590781912  1.124098871622056 2.957526991478201 -0.5594169689370629  0.2477015793419729 -2.415655802610486 -5.510682951113449  0.8844491790088972 -2.245867158009595 -5.438931443942415  1.464891069119211 -1.932330028996181 -5.373934600293736  1.955087092649627 -1.489613175355717 -5.319502697776375  2.318355026965356 -0.937054784961175 -5.279744576064058  2.524994411863564 -0.307899182343253 -5.257941630215678  2.574632820450045 0.3531084349228537 -5.254020561031156  2.465743861849647 1.006614152640354 -5.268052816559671  2.183897076015212 1.604484044160622 -5.301550147358176  1.722560240631265 2.07491696755195 -5.35506775502591  1.13806318635062 2.378906583716481 -5.422118662603529  1.742182153284979 2.73179858498085 5.854691697147836e-16  2.262480931380501 2.395264875892136 -2.601681534737615e-16  2.698000706832733 1.954727370266727 -3.903113804560263e-16  3.021530388777258 1.426473918441798 1.707421408502106e-16  3.223363606607101 0.8405687193648443 -2.844806418042028e-16  3.305434793487241 0.2261994274297442 -4.472186606099012e-16  3.269241566985055 -0.3926051469820059 3.171555149681837e-16  3.113478077610213 -0.9924495549400153 3.510830505762065e-16  2.840400132149515 -1.548806515270482 -1.707368614952523e-16  2.466120284856568 -2.042983582774378 9.732831365154574e-17  2.008125599488538 -2.460814027017948 -3.577575055983979e-16  1.482521285196868 -2.789563899556613 -4.886146623064541e-17  0.9057866143556688 -3.01678997208197 -2.439392613813594e-16  0.2964958724913082 -3.130681163554852 3.414395345104792e-16  -0.32338307292875 -3.126978161260848 2.926910878106614e-16  -1.29067345658392 -0.3506098753383553 -5.690421630247788  -1.068897680254163 -0.8451623229646739 -5.663999894259847  -0.6782440885714781 -1.219621806060448 -5.6187489875115  -0.168757542531344 -1.390394566692369 -5.560546895724229  0.3611301401510615 -1.294122251639114 -5.500717901478111  0.8191548613516448 -1.005201308695582 -5.449538098373106  1.16817203978903 -0.5892762115769014 -5.411042670828763  1.960898302630318 -0.551652302616722 -8.131516293641286e-17  1.751009740180289 -1.077278642631261 7.445724005953314e-16  1.394016468000002 -1.516729095803803 1.136104663605282e-15  0.9227767039454898 -1.830301465573364 3.434443593283319e-16  0.3780412068884804 -1.984007749105097 8.617772484356591e-16  -0.1885780664025548 -1.977994130030172 2.357202029695971e-16  -0.7327557451871473 -1.821291124380143 1.942410916395698e-17  -1.191068596016128 -1.491774666596192 2.975009434367945e-16  -1.480405544894888 -1.006855825633415 6.954512630084263e-16  -1.812414118534285 0.2561131097252937 -2.664867827914479  2.421751940242729 0.6298287624476981 -1.933377861698098  0.7556418177061754 1.42269463362527 -4.617654324361507  0.003134751711410342 1.574821943356493 -0.9318675177876981  1.015098001669947 1.51699057942374 -0.9441494884276413  0.6193243625380082 1.764115149411371 -1.862230514405671  -0.4757031201037318 1.549728101933577 -1.958273018773558  0.1126459993007786 1.698838152590054 -2.957602797129454  -0.3405660022430232 1.569615851499001 -4.678135257405353  1.818199099779932 0.7365610114574719 -3.763003518505052  -0.9541815370276669 1.23451227632913 -2.875526912859068  -1.269464226480212 1.016489154450913 -4.672047638709048  1.301562892980348 1.557566760682666 -2.802482532053872  -0.7813756340336595 1.414221906310649 -3.725761628685261  -1.58370798409762 0.5643609111372817 -3.581008460136619  -0.988817348255397 1.158392548936659 -1.014254585170146  -1.607700527190565 0.2800106654898483 -1.030081240453645  -1.388203055800784 0.7951310659851955 -1.943712885648593  0.8261955720421881 1.570157055202129 -3.620947225245673  1.681455131778566 1.410849015379531 -1.876189895849114  1.878739160554727 0.943024132521903 -0.9866418074548234  2.103426639579445 1.000735947836943 -2.593434794762663  1.62623803052506 0.6468498306152269 -4.727220189271843  -1.882943490361709 -0.1546739965127431 -1.761716647663214  0.05868355051519467 1.656538949473053 -3.863342338366238  2.465845305360337 0.2632819454094029 -2.663569745038379  1.994842599423799 0.5019775153043848 -0.4779055074204815  2.1671824130763 0.4980244878585698 -1.027636182799239  1.710213566460811 0.9718796190568162 -0.4957578884333736  1.845584590132108 0.2253887364997403 -4.583879812097906  1.579035044615276 0.2924902970866011 -5.101748935835201  1.409777182251665 0.7868327264427526 -5.07202467441607  -1.039178737375989 1.089168173550246 -5.170746090958521  -1.377687418630729 0.6683636420802941 -5.233117919580046  -1.641402128985454 0.4875654733502939 -4.648722230221863  -1.765467255797776 -0.2695484060062747 -1.079683539430899  -1.617858736076732 -0.08318463488274264 -0.5123563299218489  -1.474019211051276 0.4496529111656123 -0.5150171376928306  2.417677350191343 0.3274903893149403 -1.506992657970159 
[...]
<PointData  Tensors="strain"> 
<DataArray  type="Float64"  Name="strain"  NumberOfComponents="9" format="ascii">-4.3596803627413735e-02 -9.6862030258171462e-03 -3.0611990836763514e-01 -9.6862030258171462e-03 1.2013162696691504e-02 -4.6782460398027213e-02 -3.0611990836763514e-01 -4.6782460398027213e-02 2.4080755993476013e-01  -1.9221216248588974e-01 5.3562178675580101e-02 1.5476694215729636e-01 5.3562178675580108e-02 4.0270396352934007e-01 -8.6884705848933153e-02 1.5476694215729633e-01 -8.6884705848933153e-02 2.8137651131301660e-02  -1.4703352147381038e-01 8.2594977798364805e-02 -1.8678029905320154e-01 8.2594977798364791e-02 3.7685648821783696e-01 9.7777846710481120e-02 -1.8678029905320154e-01 9.7777846710481120e-02 1.4284505312833087e-02  -6.5764976863707664e-02 -3.8291783489815420e-02 2.8622562501785526e-01 -3.8291783489815420e-02 3.3341157805106833e-03 -2.5598140025939124e-02 2.8622562501785526e-01 -2.5598140025939124e-02 2.6975139321489855e-01  9.9953869820016222e-02 -1.1332148435370741e-02 6.0657519654314727e-02 -1.1332148435370748e-02 -9.7784226072457514e-02 6.2819564633968261e-02 6.0657519654314727e-02 6.2819564633968261e-02 3.3773788198998678e-02  1.7826643054026436e-01 -7.5669945743202264e-03 -5.4393456699947489e-02 -7.5669945743202316e-03 -1.5822048202154712e-01 -4.1989946114779964e-02 -5.4393456699947489e-02 -4.1989946114779964e-02 3.9814175219748713e-02  -2.2759055954664192e-03 9.7908079788720272e-03 -4.7237575946715599e-02 9.7908079788720272e-03 -1.7629899416925617e-02 1.9491168471252199e-01 -4.7237575946715599e-02 1.9491168471252199e-01 8.8740710693638702e-02  6.5746570824686780e-03 2.9352736136316459e-02 6.1183374743627193e-02 2.9352736136316459e-02 4.8219416295815311e-02 -9.3387852062603166e-02 6.1183374743627193e-02 -9.3387852062603166e-02 -3.3291420554001652e-02  -1.9220689029406357e-01 -4.5743071038593902e-02 -1.7332443190311717e-01 -4.5743071038593902e-02 2.0254260842203731e-01 -8.7943768220425170e-02 -1.7332443190311725e-01 -8.7943768220425170e-02 1.8451217912101936e-01  -2.2596982752663991e-01 -6.2910352270732883e-02 -1.3756505785961085e-01 -6.2910352270732883e-02 2.8691389631842618e-01 -6.7562556905509774e-02 -1.3756505785961085e-01 -6.7562556905509774e-02 1.5572097760060635e-01  -2.6015317979036845e-01 -1.0697616508955638e-02 -1.1831627472620693e-01 -1.0697616508955635e-02 3.1221176009058804e-01 -3.6255097545323703e-02 -1.1831627472620693e-01 -3.6255097545323696e-02 1.7897343590186826e-01  -2.8553740705785352e-01 2.9147491203561946e-02 1.9196545252875377e-03 2.9147491203561946e-02 2.9897161294979846e-01 -5.8068165854261944e-02 1.9196545252875385e-03 -5.8068165854261944e-02 2.2548947133677649e-01  -2.4346058212711261e-01 -4.3146686687594790e-03 1.3667335264140282e-01 -4.3146686687594703e-03 3.5826887844656063e-01 -7.5634669865899146e-02 1.3667335264140282e-01 -7.5634669865899146e-02 1.3044177824798298e-01  -2.3482633141228471e-01 -4.7783171070427274e-02 1.2097589919607643e-01 -4.7783171070427267e-02 4.1279622917783543e-01 -2.6881376315385636e-02 1.2097589919607643e-01 -2.6881376315385636e-02 6.3921616812617973e-02  -2.4927391889125389e-01 -1.5382149127942883e-02 1.0571188456487769e-01 -1.5382149127942883e-02 4.2412138888452738e-01 -1.6648029045452834e-02 1.0571188456487769e-01 -1.6648029045452834e-02 6.9853858416665610e-02  -2.2690219534089717e-01 9.9508248785519938e-03 1.3890485406593053e-01 9.9508248785519886e-03 3.9827642143626191e-01 -4.4699212112235230e-02 1.3890485406593053e-01 -4.4699212112235230e-02 6.6049599281203283e-02  -1.7847513953699146e-01 3.9368115110150016e-02 1.7926046933422951e-01 3.9368115110150016e-02 3.9207887599025482e-01 -6.0231201921193196e-02 1.7926046933422951e-01 -6.0231201921193196e-02 3.0122493362450004e-02  -1.5756094902154869e-01 -1.4159936827388664e-01 1.9061920663554699e-01 -1.4159936827388664e-01 3.2544484232763921e-01 -1.5025107561725771e-02 1.9061920663554699e-01 -1.5025107561725769e-02 6.7052845788960272e-02  1.9180398203895235e-02 -2.8895495857115255e-01 1.5135557447018988e-01 -2.8895495857115255e-01 1.2823407135990017e-01 6.1883993001049777e-02 1.5135557447018988e-01 6.1883993001049777e-02 8.9127238140478307e-02  2.3080179231546652e-01 -2.2956451187219098e-01 1.1490427988904135e-01 -2.2956451187219098e-01 -1.1175895778216481e-01 1.2362456170727587e-01 1.1490427988904135e-01 1.2362456170727587e-01 1.1567111070124218e-01  3.2121791270563277e-01 -5.5242830802476980e-02 7.0302385837424999e-02 -5.5242830802476994e-02 -2.0327159593809982e-01 1.7760049884405130e-01 7.0302385837424999e-02 1.7760049884405127e-01 1.1948920680101283e-01  2.8947984612463667e-01 1.2687499311099928e-01 -9.6552931087639272e-03 1.2687499311099926e-01 -1.5125516044213860e-01 2.1251746604843444e-01 -9.6552931087639307e-03 2.1251746604843438e-01 1.0355018861685690e-01  1.4278741770805703e-01 2.4469157928143212e-01 -7.9873232866545837e-02 2.4469157928143206e-01 1.6087652601021289e-02 1.9963103589009162e-01 -7.9873232866545837e-02 1.9963103589009165e-01 7.8361848028016004e-02  -3.0196845245705841e-02 2.2527083922246133e-01 -1.4100702133435383e-01 2.2527083922246136e-01 2.1835854299030411e-01 1.6500174017769517e-01 -1.4100702133435383e-01 1.6500174017769517e-01 5.0828256951643169e-02  -2.0791293286375043e-01 -2.1187655771685555e-02 1.6278685919850280e-01 -2.1187655771685555e-02 1.7743698432644256e-01 1.5613900697115241e-02 1.6278685919850280e-01 1.5613900697115244e-02 2.0789820348784871e-01  -2.1489790754401847e-01 -4.3561431195414675e-02 1.4351290732719260e-01 -4.3561431195414675e-02 2.7472562106141413e-01 1.0795340583297229e-02 1.4351290732719260e-01 1.0795340583297229e-02 1.3429192294121214e-01  -2.4480753382456377e-01 -4.1359737277488172e-02 1.2606258291337560e-01 -4.1359737277488172e-02 2.8712553908663002e-01 3.2092317393244849e-02 1.2606258291337560e-01 3.2092317393244842e-02 1.7601626507329454e-01  -2.8624080804859742e-01 -1.4947209013278279e-02 2.6020803337772434e-02 -1.4947209013278276e-02 3.1943026190966084e-01 5.8423549271159711e-02 2.6020803337772430e-02 5.8423549271159725e-02 2.0173896759189053e-01  -2.8146259926579748e-01 7.1139452739764596e-03 -5.0971037098477265e-02 7.1139452739764596e-03 3.5318048438248140e-01 9.6341892309929997e-02 -5.0971037098477265e-02 9.6341892309930025e-02 1.7032886829339872e-01  -2.6189664505959948e-01 -2.0858879394078239e-02 -7.0505709805218988e-02 -2.0858879394078239e-02 3.9210112720767609e-01 1.1399548714348465e-01 -7.0505709805218988e-02 1.1399548714348465e-01 1.0856488802510772e-01  -2.7188892711556911e-01 -1.1910275848128232e-02 -5.0610573532809289e-02 -1.1910275848128218e-02 3.9006348838482341e-01 1.2829354678572580e-01 -5.0610573532809289e-02 1.2829354678572580e-01 1.2288037395193264e-01  -2.7355193088052848e-01 5.0043709394932794e-02 -6.7691024543138495e-02 5.0043709394932780e-02 3.6651046637190737e-01 1.1248679694289664e-01 -6.7691024543138495e-02 1.1248679694289664e-01 1.5403740612354386e-01  -2.1588934416295399e-01 6.9327558722902638e-02 -1.4958624555079444e-01 6.9327558722902652e-02 3.5717839345886054e-01 1.1546593557474606e-01 -1.4958624555079444e-01 1.1546593557474606e-01 1.0874655724186157e-01  -9.0491470125471360e-02 -2.5722664020528742e-03 2.7720862669648222e-01 -2.5722664020528746e-03 1.4543918872744144e-02 -6.5908034496698159e-02 2.7720862669648222e-01 -6.5908034496698159e-02 2.8505469115603843e-01  -8.1457317308756397e-02 3.1905910416279208e-02 2.3615747146985674e-01 3.1905910416279215e-02 -4.7336179597359064e-04 -1.4580346966542670e-01 2.3615747146985674e-01 -1.4580346966542670e-01 2.9026526023459454e-01  -5.9042185758435360e-02 5.7825333745417436e-02 1.9871780087317739e-01 5.7825333745417436e-02 -3.0053634338306906e-02 -1.9522750852069232e-01 1.9871780087317739e-01 -1.9522750852069232e-01 3.0074545994862040e-01  -1.8529628937386852e-02 4.7312470050993337e-02 1.2059653485163635e-01 4.7312470050993337e-02 -7.0396901631562023e-02 -2.4160173698659806e-01 1.2059653485163635e-01 -2.4160173698659806e-01 3.0698273925939645e-01  4.1348028045922852e-04 3.1636687764343280e-02 7.5007998537836199e-02 3.1636687764343280e-02 -9.2006523955805539e-02 -2.6777517279893065e-01 7.5007998537836212e-02 -2.6777517279893065e-01 3.1512126305385574e-01  4.6273931021754717e-03 4.9278446348451216e-03 -2.3179593179469937e-02 4.9278446348451216e-03 -9.9654683430358798e-02 -2.7939334944027816e-01 -2.3179593179469941e-02 -2.7939334944027816e-01 3.2752262323611991e-01  1.1758312002623573e-02 -1.7830284673888152e-02 -9.0867904816185438e-02 -1.7830284673888152e-02 -7.9676457237288389e-02 -2.7754825572375691e-01 -9.0867904816185424e-02 -2.7754825572375691e-01 2.8184405827599279e-01  -1.9567445722082664e-02 -5.2938291851962756e-02 -2.0897619873110418e-01 -5.2938291851962756e-02 -5.4338072753213687e-02 -2.0297310940851845e-01 -2.0897619873110418e-01 -2.0297310940851845e-01 3.1070619604688493e-01  -7.3248000997155296e-02 -4.3759226037987861e-02 -2.7128346170290407e-01 -4.3759226037987861e-02 -2.4561372951135502e-02 -1.2079292277737426e-01 -2.7128346170290407e-01 -1.2079292277737426e-01 3.4092513407719977e-01  8.8775939068812523e-02 3.7366713813157738e-02 3.0717995080445617e-02 3.7366713813157752e-02 -9.1570703786162458e-02 8.1831888418768317e-02 3.0717995080445617e-02 8.1831888418768317e-02 3.9363215711807682e-02  7.3475531544898692e-02 7.9665572131933066e-02 1.3267303131796665e-02 7.9665572131933066e-02 -6.6014533718079735e-02 8.7842290599893000e-02 1.3267303131796665e-02 8.7842290599893000e-02 3.1842894852617751e-02  1.7019920096772535e-02 9.3415053920498481e-02 -1.7833868142602780e-02 9.3415053920498453e-02 -2.1680639420438508e-02 9.1500296910310489e-02 -1.7833868142602780e-02 9.1500296910310489e-02 4.1237701552983598e-02  -2.2116692817736417e-02 1.0146923034822694e-01 -5.0991911265878979e-02 1.0146923034822698e-01 5.3549513111852132e-02 8.2340467697843756e-02 -5.0991911265878979e-02 8.2340467697843756e-02 1.1351832313738673e-02  -6.4291899121676627e-02 6.5341490101364350e-02 -7.0798356785546551e-02 6.5341490101364350e-02 9.9985759772103472e-02 7.3324857650095832e-02 -7.0798356785546551e-02 7.3324857650095845e-02 7.0414141038666481e-03  -9.2087599225555261e-02 2.2579557588195402e-02 -8.3672968763442337e-02 2.2579557588195413e-02 1.1229848847270869e-01 5.0634345950879456e-02 -8.3672968763442337e-02 5.0634345950879456e-02 2.2738993939377151e-02  -8.3190490573234535e-02 -2.4219716800962882e-02 -1.0421758213303829e-01 -2.4219716800962882e-02 1.1470771567851626e-01 3.1944275757966586e-02 -1.0421758213303826e-01 3.1944275757966586e-02 1.7701017853414585e-02  -4.6818155988991278e-02 -8.2738808016156226e-02 -8.9699188273089994e-02 -8.2738808016156212e-02 8.3962097657448526e-02 6.9585967977509513e-05 -8.9699188273089994e-02 6.9585967977504282e-05 1.2109135758329667e-03  1.1806710306050813e-02 -1.1166146505845558e-01 -9.3608972008732125e-02 -1.1166146505845555e-01 6.9664657137782160e-03 3.0348645025770325e-03 -9.3608972008732125e-02 3.0348645025770381e-03 1.9642953646817413e-02  5.5583507504156533e-02 -5.1111485199621019e-02 -8.3196686875380080e-02 -5.1111485199621019e-02 -8.0211394755094742e-02 -3.3916566954747526e-02 -8.3196686875380080e-02 -3.3916566954747540e-02 4.8909131248145908e-02  1.3411616683621541e-01 -7.2744154985645224e-02 -6.2488958434465870e-02 -7.2744154985645224e-02 -1.1732585795757623e-01 -4.7330118632027247e-02 -6.2488958434465870e-02 -4.7330118632027247e-02 3.2033828124524030e-02  2.1565424642254666e-01 -4.5324463904115084e-02 -7.6440031889808580e-02 -4.5324463904115084e-02 -1.7796363907999987e-01 -1.0670748316516700e-01 -7.6440031889808607e-02 -1.0670748316516700e-01 8.5121772480796318e-02  2.1111659321752335e-01 -3.5430792877415782e-02 -6.8402710712608686e-02 -3.5430792877415775e-02 -1.0788002758926241e-01 -1.6385983656520908e-01 -6.8402710712608686e-02 -1.6385983656520914e-01 2.6374416495769288e-02  1.8072993807116275e-01 -9.5891730834561980e-03 -3.6985788185507781e-02 -9.5891730834561980e-03 -8.2725675180020664e-02 -1.4192070657363434e-01 -3.6985788185507781e-02 -1.4192070657363434e-01 -1.4973859963658045e-02  1.5448241049551209e-01 -3.3743448365344438e-03 -2.9661743010011475e-02 -3.3743448365344507e-03 -1.2332344182901787e-01 -9.6972108025355275e-02 -2.9661743010011472e-02 -9.6972108025355275e-02 2.7921446803599776e-02  1.2995232566392931e-01 -3.4360180009610171e-02 -4.9523198846710838e-02 -3.4360180009610171e-02 -1.6064806958124067e-01 -6.1523926762800364e-02 -4.9523198846710852e-02 -6.1523926762800364e-02 1.0057954416980358e-01  1.0002447670524861e-01 -3.6491975461513185e-02 -3.9768946681206570e-02 -3.6491975461513178e-02 -1.5807185141297078e-01 -2.8291465704340511e-02 -3.9768946681206570e-02 -2.8291465704340511e-02 1.1460308969422300e-01  6.8639147487233279e-02 -5.3581830090080537e-02 -6.9546285225156497e-03 -5.3581830090080551e-02 -1.1479285359183745e-01 4.3426604351095646e-02 -6.9546285225156497e-03 4.3426604351095646e-02 7.7431244407966601e-02  5.4397558590125863e-02 -7.6909288266823000e-02 -2.1074263995225873e-04 -7.6909288266823000e-02 -9.2759338578697698e-02 1.2301952816161306e-01 -2.1074263995225849e-04 1.2301952816161306e-01 1.0095302140938954e-01  4.9296094883997707e-02 -6.5614242539150922e-02 -9.3250943767403914e-03 -6.5614242539150922e-02 -1.0518166788570256e-01 1.6298609684921908e-01 -9.3250943767403897e-03 1.6298609684921908e-01 1.4915913693503091e-01  5.9882227437315985e-03 8.0900694962827424e-03 -1.0873873922164459e-02 8.0900694962827424e-03 -2.2688850548157783e-02 1.8422834462980608e-01 -1.0873873922164459e-02 1.8422834462980608e-01 6.9342181605549488e-02  1.0218412613050263e-02 2.8831069134326514e-03 1.5229338306127823e-02 2.8831069134326514e-03 -2.4861982865793657e-02 1.6892839428700829e-01 1.5229338306127823e-02 1.6892839428700829e-01 5.5150968184519589e-02  1.4854639580049176e-02 -8.2809990676656047e-03 4.8560482591859751e-02 -8.2809990676656047e-03 -2.9055296338364660e-02 1.6157516723583260e-01 4.8560482591859751e-02 1.6157516723583260e-01 5.5196843926544746e-02  2.0608316494172867e-02 -2.1344231164382381e-02 7.0013056350419794e-02 -2.1344231164382381e-02 -1.8999818194985654e-02 1.4481274851065079e-01 7.0013056350419794e-02 1.4481274851065079e-01 3.8538814240991648e-02  1.6140966860859755e-02 -1.6746545220885228e-02 9.5885702882918505e-02 -1.6746545220885228e-02 -1.7250809347666856e-02 1.2498357517455180e-01 9.5885702882918505e-02 1.2498357517455180e-01 3.4407298819706930e-02  4.5118544594168933e-02 -1.1196751822646655e-02 8.8808470499157355e-02 -1.1196751822646655e-02 5.0287773778279166e-04 9.4335124205364329e-02 8.8808470499157383e-02 9.4335124205364315e-02 -2.7297039013614723e-02  5.0114213629333694e-02 -1.9558404496564392e-02 1.0329105101577374e-01 -1.9558404496564388e-02 6.5531792088579779e-03 5.5017124868935806e-02 1.0329105101577377e-01 5.5017124868935806e-02 -3.8689525507979869e-02  2.1607788766370022e-02 -3.7509806578665400e-02 1.3426959809518360e-01 -3.7509806578665400e-02 2.0123975535934709e-02 3.9317396343247678e-02 1.3426959809518360e-01 3.9317396343247678e-02 -7.8308801314627818e-03  2.9621521647399372e-02 -4.0875405998120139e-02 1.2195451147155734e-01 -4.0875405998120139e-02 4.2008416398467578e-02 1.6080200543250581e-03 1.2195451147155734e-01 1.6080200543250581e-03 -4.5881320497070242e-02  1.5512281694113696e-02 -4.3028463636262310e-02 1.2176922930545553e-01 -4.3028463636262310e-02 6.0925951810517735e-02 -1.8018278528488092e-02 1.2176922930545553e-01 -1.8018278528488092e-02 -5.0302506906123742e-02  -1.4071727624432033e-02 -2.6363838058062573e-02 1.1194229357644916e-01 -2.6363838058062566e-02 7.2596820843208093e-02 -5.1110078526024311e-02 1.1194229357644916e-01 -5.1110078526024311e-02 -3.1530167491017599e-02  -2.4535260343661405e-02 4.8763080053262050e-03 1.0798103013460110e-01 4.8763080053262050e-03 5.9603166083135505e-02 -7.0572174853149996e-02 1.0798103013460110e-01 -7.0572174853149996e-02 -2.3442796212676154e-03  7.2426384626883000e-03 8.2079260308983489e-03 7.0843798488831392e-02 8.2079260308983489e-03 6.9518269743727851e-02 -7.8388791053518203e-02 7.0843798488831405e-02 -7.8388791053518203e-02 -5.5301114360824598e-02  1.2474978821571673e-02 -3.4385825332191304e-02 -6.7884772703844061e-03 -3.4385825332191304e-02 8.9656194709471587e-02 -9.9220870449484785e-02 -6.7884772703844000e-03 -9.9220870449484758e-02 -8.6194645865650829e-02  -1.8444025909742378e-02 2.6629086992749934e-02 4.8887715867710194e-02 2.6629086992749934e-02 5.0872134741919865e-02 -9.6704312090789793e-02 4.8887715867710201e-02 -9.6704312090789807e-02 -8.3458746946475197e-03  9.4923546561633834e-02 -4.6837927294645497e-02 4.0621564315011308e-02 -4.6837927294645476e-02 -1.1404316191399064e-01 4.3240017255866584e-02 4.0621564315011294e-02 4.3240017255866584e-02 5.7419413069727081e-02  9.1939462333425523e-02 -4.7518078722415008e-02 5.4415555641563439e-02 -4.7518078722414994e-02 -1.2384846331300399e-01 6.6088456387083773e-03 5.4415555641563439e-02 6.6088456387083773e-03 6.8194202730443715e-02  1.1478038219341884e-01 -7.3222940107674744e-02 5.7067547885256052e-02 -7.3222940107674744e-02 -1.4895458174997506e-01 -2.7168837845544338e-03 5.7067547885256052e-02 -2.7168837845544412e-03 9.5350475619662797e-02  1.4624351077983391e-01 -7.5469659596424182e-02 6.1845369189790840e-02 -7.5469659596424182e-02 -1.7216446063156232e-01 1.8825552632838180e-02 6.1845369189790840e-02 1.8825552632838177e-02 1.1317294363433612e-01  1.3395684702081678e-01 -6.3421378353735833e-02 6.0144215297605941e-02 -6.3421378353735861e-02 -1.6813008248620845e-01 3.3008027721325293e-02 6.0144215297605955e-02 3.3008027721325293e-02 1.1522149124964555e-01  1.2114623403270132e-01 -5.0138190553929256e-02 4.7384787056518135e-02 -5.0138190553929263e-02 -1.6991577973573413e-01 2.5054406250543025e-02 4.7384787056518121e-02 2.5054406250543025e-02 1.2143798298768425e-01  9.4264023106046854e-02 -4.1113466164356911e-02 3.8852544838136868e-02 -4.1113466164356911e-02 -1.6466506701797576e-01 1.1917379806829578e-02 3.8852544838136868e-02 1.1917379806829578e-02 1.3437847230315689e-01  6.4488453113561661e-02 -3.8668709729882747e-02 6.8218603187407037e-02 -3.8668709729882747e-02 -1.4781164989089379e-01 -9.1240135856625257e-03 6.8218603187407037e-02 -9.1240135856625257e-03 1.3481818619300689e-01  4.8202040133147293e-02 -2.6405998969213709e-02 7.3692006828304832e-02 -2.6405998969213709e-02 -6.2860007199125559e-02 -7.9419130308541249e-03 7.3692006828304832e-02 -7.9419130308541249e-03 2.1847753180277197e-02  1.6190742826438098e-01 5.4567920704465839e-02 -3.5069962705355048e-02 5.4567920704465853e-02 -1.4387770262342187e-01 -7.8770159455967340e-02 -3.5069962705355048e-02 -7.8770159455967340e-02 4.5818936985064014e-02  1.3222776755660237e-01 1.3932733091311095e-01 -1.3407417721999918e-02 1.3932733091311092e-01 -1.0392582045682379e-01 -8.5408408033106703e-02 -1.3407417721999918e-02 -8.5408408033106703e-02 4.7906575138462713e-02  4.2820062921213729e-02 1.6565106635785848e-01 1.5982667519183029e-02 1.6565106635785848e-01 -4.0683912844688641e-02 -8.0990431562173212e-02 1.5982667519183008e-02 -8.0990431562173212e-02 6.9809648985892425e-02  -5.3728364316873431e-02 1.6280405564806052e-01 3.4679073152267606e-02 1.6280405564806052e-01 6.0412152634380413e-02 -7.7906799698007415e-02 3.4679073152267599e-02 -7.7906799698007415e-02 6.6366970284800625e-02  -1.1494258224632395e-01 1.0178541116072649e-01 5.4798106551558382e-02 1.0178541116072649e-01 9.6651372275330383e-02 -7.3371025804856604e-02 5.4798106551558382e-02 -7.3371025804856604e-02 8.1397245170271734e-02  -1.3003660671807624e-01 3.7908691190878745e-02 7.7894158591991169e-02 3.7908691190878745e-02 1.2964579874024276e-01 -5.3469143864167866e-02 7.7894158591991169e-02 -5.3469143864167866e-02 5.9569450931627140e-02  -1.0396921990980722e-01 -3.9949207925449842e-02 9.3698581733286795e-02 -3.9949207925449835e-02 1.0628309871502106e-01 -3.0774913578889961e-02 9.3698581733286809e-02 -3.0774913578889958e-02 4.3037468710921095e-02  -9.7469311249826981e-02 -6.0802953842125078e-02 8.1040333461510933e-02 -6.0802953842125078e-02 7.5561305523005995e-02 -2.3761970607175734e-02 8.104033