<?xml version="1.0"?>
<VTKFile type="UnstructuredGrid"  version="0.1"  >
<UnstructuredGrid>
<Piece  NumberOfPoints="1268" NumberOfCells="4847">
<Points>
<DataArray  type="Float64"  NumberOfComponents="3"  format="ascii">1.994716987487452 0.01317707561264319 -1.202466945460223e-11  1.374072606111497 -0.08614134488653273 -5.388997575085332  -1.285941478930618 0.1916557790035214 -5.691288663606836  -1.59032616235459 -0.4515196446136259 1.626303258728257e-17  0.4950030257755884 2.521650519233041 -5.495391852657774  -0.4107718940653654 -2.429115409112172 -5.58531208084276  -0.9314707163843408 -3.006923447963563 4.87890977618477e-17  1.161824811771535 2.948440156756841 -3.391384395534658e-14  2.146749234505421 0.002696741478414759 -0.5615078450779066  2.330988047973839 -0.000873250973709995 -1.113141311680313  2.540713632977715 -0.1384292375506191 -1.637427654548237  2.645241452520652 -0.2872312815961211 -2.18637082393926  2.504842461151312 -0.2752146673621067 -2.746850782899552  2.287876352721185 -0.2088259978706829 -3.283011632728322  2.137771360922677 -0.2093380261300688 -3.844996501809416  1.970142554575494 -0.2193701374385486 -4.401638277082749  1.701580801829277 -0.1696632515169769 -4.915066532844666  1.398049690886424 0.4419377546899956 -5.387643705321969  1.183972204621215 0.9208338616597355 -5.413149504812257  0.7621482426349403 1.234356207118232 -5.461782499987256  0.2539805730796886 1.370727420898931 -5.519751404145364  -0.2689415860383004 1.319053689498898 -5.578906487138381  -0.7357170559581984 1.076180709179107 -5.631191713357971  -1.086003096318238 0.6812820615514149 -5.669884670156524  -1.65706961757681 -0.5275128747266272 -0.6240725009925172  -1.829082870387909 -0.8347372240299333 -1.153553189134448  -2.030635262011336 -1.097965926806997 -1.693320688638939  -2.148557703924963 -0.9683820133813712 -2.295450526931833  -2.119047321408695 -0.7521727279271558 -2.890676896601294  -1.972500555455803 -0.7106310836492745 -3.509380855831461  -1.885028119342598 -0.4902108162504233 -4.093718100793141  -1.832050776792238 -0.1313823297003599 -4.617858136599065  -1.636180550340053 0.1151199882480144 -5.165527944859976  -1.540434086810702 0.1014447694855235 -7.644826989049428e-17  -1.339902801239663 0.6191128040412099 2.218327606354497e-17  -0.9949589579071262 1.053322092476122 2.12059320661159e-17  -0.5243975458638882 1.346285776146202 7.754217898549941e-16  0.01399251627036286 1.481823287560149 3.252316763596149e-17  0.5696211504784076 1.47677978548424 -7.207855520904863e-17  1.105448032340458 1.331487337928338 1.951563910473908e-16  1.561367740818086 1.018090979386763 -2.179459114756194e-16  1.860006992193919 0.551530302300456 1.369433074745588e-16  -0.152869286718376 2.506583809965366 -5.568804938302105  -0.7781210310064858 2.335338381675429 -5.639249366957451  -1.340550096787874 2.011723800088065 -5.702178028336585  -1.803922993566052 1.555830170950866 -5.753534898075912  -2.144678763029901 1.000979069722826 -5.790734833138769  -2.346903237737564 0.3811866585909049 -5.812061421922149  -2.406990243842066 -0.2684488461825228 -5.817196438260218  -2.318433628103212 -0.9144163570965761 -5.805488779558074  -2.059391262210163 -1.511004864267824 -5.774580158166454  -1.615755841275718 -1.983465489741105 -5.72306417450185  -1.043145925381342 -2.287058241276404 -5.657361969815248  -0.6986882361605687 -2.420627649803484 -5.024556445072709  -0.8272574030199392 -2.685291244074475 -4.476216325063944  -0.8113210073272845 -3.118860027310894 -4.01596683617901  -0.7618552434953355 -3.481598098596065 -3.504026669625047  -0.7509882165597778 -3.609083979854663 -2.886473298216772  -0.7986167670519319 -3.732483084086931 -2.268445488219849  -0.8276969497603353 -3.810997815301134 -1.64593496945388  -0.7425506523451623 -3.557242155569485 -1.078322423839125  -0.7147449622328144 -3.21189056194362 -0.5511080601316157  -1.482234509376526 -2.778582553401298 -5.854479658363816e-16  -1.970737176894139 -2.437284655419533 2.764697292186607e-16  -2.362818572203899 -1.988727212877528 2.439101268600111e-16  -2.642390785384022 -1.462244173776716 5.051059276813266e-16  -2.812149102113852 -0.89052423419162 2.276851973687203e-16  -2.877946727920729 -0.2976446157883296 -1.219909928720168e-16  -2.842947107925845 0.2978601752284433 4.065446096494693e-17  -2.70313036896374 0.8776122116387211 -5.041496169361013e-16  -2.452324348076021 1.418519584933707 4.379274460317988e-16  -2.098265626135573 1.898294456130726 1.951060033519619e-16  -1.658391347368763 2.301023318502569 -1.789574489620802e-16  -1.154148079923361 2.619757341302747 -2.081203863085907e-15  -0.6042202207747882 2.851073703499478 -3.577841418755692e-16  -0.02416138323675775 2.990516581461941 4.065982498622179e-16  0.5710641261211448 3.028216945076794 -1.46882551317968e-16  0.6414151130412097 2.696325287154043 -4.983333021490838  0.771852374565919 2.778456367279237 -4.445188759107248  0.8805845204306011 2.73078881179073 -3.897720120696569  0.9481597620953167 2.69798349057175 -3.343104559074628  0.9815370707090804 2.778214865778854 -2.789250505759619  1.013475345489448 2.861817704396183 -2.235671116027784  1.055849759321274 2.898356228459238 -1.677594140621302  1.093646323460014 2.92793989028903 -1.118725590781912  1.124098871622056 2.957526991478201 -0.5594169689370629  0.2477015793419729 -2.415655802610486 -5.510682951113449  0.8844491790088972 -2.245867158009595 -5.438931443942415  1.464891069119211 -1.932330028996181 -5.373934600293736  1.955087092649627 -1.489613175355717 -5.319502697776375  2.318355026965356 -0.937054784961175 -5.279744576064058  2.524994411863564 -0.307899182343253 -5.257941630215678  2.574632820450045 0.3531084349228537 -5.254020561031156  2.465743861849647 1.006614152640354 -5.268052816559671  2.183897076015212 1.604484044160622 -5.301550147358176  1.722560240631265 2.07491696755195 -5.35506775502591  1.13806318635062 2.378906583716481 -5.422118662603529  1.742182153284979 2.73179858498085 5.854691697147836e-16  2.262480931380501 2.395264875892136 -2.601681534737615e-16  2.698000706832733 1.954727370266727 -3.903113804560263e-16  3.021530388777258 1.426473918441798 1.707421408502106e-16  3.223363606607101 0.8405687193648443 -2.844806418042028e-16  3.305434793487241 0.2261994274297442 -4.472186606099012e-16  3.269241566985055 -0.3926051469820059 3.171555149681837e-16  3.113478077610213 -0.9924495549400153 3.510830505762065e-16  2.840400132149515 -1.548806515270482 -1.707368614952523e-16  2.466120284856568 -2.042983582774378 9.732831365154574e-17  2.008125599488538 -2.460814027017948 -3.577575055983979e-16  1.482521285196868 -2.789563899556613 -4.886146623064541e-17  0.9057866143556688 -3.01678997208197 -2.439392613813594e-16  0.2964958724913082 -3.130681163554852 3.414395345104792e-16  -0.32338307292875 -3.126978161260848 2.926910878106614e-16  -1.29067345658392 -0.3506098753383553 -5.690421630247788  -1.068897680254163 -0.8451623229646739 -5.663999894259847  -0.6782440885714781 -1.219621806060448 -5.6187489875115  -0.168757542531344 -1.390394566692369 -5.560546895724229  0.3611301401510615 -1.294122251639114 -5.500717901478111  0.8191548613516448 -1.005201308695582 -5.449538098373106  1.16817203978903 -0.5892762115769014 -5.411042670828763  1.960898302630318 -0.551652302616722 -8.131516293641286e-17  1.751009740180289 -1.077278642631261 7.445724005953314e-16  1.394016468000002 -1.516729095803803 1.136104663605282e-15  0.9227767039454898 -1.830301465573364 3.434443593283319e-16  0.3780412068884804 -1.984007749105097 8.617772484356591e-16  -0.1885780664025548 -1.977994130030172 2.357202029695971e-16  -0.7327557451871473 -1.821291124380143 1.942410916395698e-17  -1.191068596016128 -1.491774666596192 2.975009434367945e-16  -1.480405544894888 -1.006855825633415 6.954512630084263e-16  -1.812414118534285 0.2561131097252937 -2.664867827914479  2.421751940242729 0.6298287624476981 -1.933377861698098  0.7556418177061754 1.42269463362527 -4.617654324361507  0.003134751711410342 1.574821943356493 -0.9318675177876981  1.015098001669947 1.51699057942374 -0.9441494884276413  0.6193243625380082 1.764115149411371 -1.862230514405671  -0.4757031201037318 1.549728101933577 -1.958273018773558  0.1126459993007786 1.698838152590054 -2.957602797129454  -0.3405660022430232 1.569615851499001 -4.678135257405353  1.818199099779932 0.7365610114574719 -3.763003518505052  -0.9541815370276669 1.23451227632913 -2.875526912859068  -1.269464226480212 1.016489154450913 -4.672047638709048  1.301562892980348 1.557566760682666 -2.802482532053872  -0.7813756340336595 1.414221906310649 -3.725761628685261  -1.58370798409762 0.5643609111372817 -3.581008460136619  -0.988817348255397 1.158392548936659 -1.014254585170146  -1.607700527190565 0.2800106654898483 -1.030081240453645  -1.388203055800784 0.7951310659851955 -1.943712885648593  0.8261955720421881 1.570157055202129 -3.620947225245673  1.681455131778566 1.410849015379531 -1.876189895849114  1.878739160554727 0.943024132521903 -0.9866418074548234  2.103426639579445 1.000735947836943 -2.593434794762663  1.62623803052506 0.6468498306152269 -4.727220189271843  -1.882943490361709 -0.1546739965127431 -1.761716647663214  0.05868355051519467 1.656538949473053 -3.863342338366238  2.465845305360337 0.2632819454094029 -2.663569745038379  1.994842599423799 0.5019775153043848 -0.4779055074204815  2.1671824130763 0.4980244878585698 -1.027636182799239  1.710213566460811 0.9718796190568162 -0.4957578884333736  1.845584590132108 0.2253887364997403 -4.583879812097906  1.579035044615276 0.2924902970866011 -5.101748935835201  1.409777182251665 0.7868327264427526 -5.07202467441607  -1.039178737375989 1.089168173550246 -5.170746090958521  -1.377687418630729 0.6683636420802941 -5.233117919580046  -1.641402128985454 0.4875654733502939 -4.648722230221863  -1.765467255797776 -0.2695484060062747 -1.079683539430899  -1.617858736076732 -0.08318463488274264 -0.5123563299218489  -1.474019211051276 0.4496529111656123 -0.5150171376928306  2.417677350191343 0.3274903893149403 -1.506992657970159 
[...]
<PointData  Tensors="stress"> 
<DataArray  type="Float64"  Name="stress"  NumberOfComponents="9" format="ascii">-5.0777098097081441e-01 -1.0882335034768768e-01 -2.5597934787805023e+00 -1.0882335034768768e-01 4.9161641299873471e-01 2.3903479922933901e-01 -2.5597934787805023e+00 2.3903479922933901e-01 2.1117443476108049e+00  -1.6183839533727598e+00 5.1514464690570416e-01 1.8392295974813342e+00 5.1514464690570405e-01 4.5145229148338126e+00 -1.0226634381907811e+00 1.8392295974813342e+00 -1.0226634381907811e+00 4.7540698745888810e-01  -1.2382954404984974e+00 8.2702149202349040e-01 -2.0570271720320918e+00 8.2702149202348996e-01 4.5714007825163510e+00 9.6202706643776115e-01 -2.0570271720320918e+00 9.6202706643776104e-01 2.0419515800374682e-01  -6.3100704228570315e-01 -4.6483038271917509e-01 2.2981181784633087e+00 -4.6483038271917509e-01 4.4513308880457891e-01 -9.3582003992709051e-01 2.2981181784633087e+00 -9.3582003992709051e-01 2.3889760570036218e+00  1.1548512490876306e+00 -6.6885694733138018e-02 5.8661574088054325e-01 -6.6885694733138032e-02 -8.9046638321327776e-01 3.9001684179480300e-01 5.8661574088054325e-01 3.9001684179480300e-01 1.0717512078369416e-01  2.3773159657045619e+00 4.8023824749362828e-02 -5.7801483772345474e-01 4.8023824749362828e-02 -1.4633889059667287e+00 -4.8915357474594107e-01 -5.7801483772345474e-01 -4.8915357474594118e-01 9.9675285058384105e-02  2.8186794796280995e-01 3.8763449777010817e-01 -8.0805392816893018e-01 3.8763449777010817e-01 -1.6641789842116761e-01 1.3467266055988714e+00 -8.0805392816893018e-01 1.3467266055988714e+00 2.9414397314273782e-01  7.4378729718918207e-02 3.0875878110309452e-01 5.8204211735608979e-01 3.0875878110309452e-01 5.7545160928428218e-01 -5.1167699501514341e-01 5.8204211735608979e-01 -5.1167699501514341e-01 -4.7059899199604005e-01  -2.1436494851976917e+00 -4.4091569333146835e-01 -1.3376433335724562e+00 -4.4091569333146835e-01 2.1472475203631602e+00 -6.8314334357952666e-01 -1.3376433335724560e+00 -6.8314334357952677e-01 2.0297838875060750e+00  -2.3176351370796295e+00 -5.3076314267601010e-01 -1.3538109027465290e+00 -5.3076314267601010e-01 3.1111445900399901e+00 -5.9684045255448370e-01 -1.3538109027465290e+00 -5.9684045255448370e-01 1.8918818813193816e+00  -2.6608410842582870e+00 -1.2680236691047106e-01 -1.1964565411751862e+00 -1.2680236691047109e-01 3.6495527895127915e+00 -2.9772817965849774e-01 -1.1964565411751862e+00 -2.9772817965849768e-01 2.1811230075038655e+00  -2.9256567733183090e+00 3.2181730638148093e-01 6.0337790655370163e-02 3.2181730638148093e-01 3.6373473870247102e+00 -6.9636379730448528e-01 6.0337790655370163e-02 -6.9636379730448539e-01 2.7627175975651310e+00  -2.4139842595254963e+00 -5.9940170730900438e-02 1.3999288438929995e+00 -5.9940170730900390e-02 4.5434494489199713e+00 -9.2777342522676165e-01 1.3999288438929995e+00 -9.2777342522676176e-01 1.5945886229596424e+00  -2.2529804238296021e+00 -6.2754322606737267e-01 1.1972789887681266e+00 -6.2754322606737267e-01 5.1063608874896280e+00 -2.2688147901355726e-01 1.1972789887681266e+00 -2.2688147901355726e-01 8.0509728159588434e-01  -2.3731001335867292e+00 -2.5455601906665959e-01 1.0533983734831709e+00 -2.5455601906665959e-01 5.3420712062867430e+00 -1.6042242775176457e-01 1.0533983734831709e+00 -1.6042242775176457e-01 8.0149247799861356e-01  -2.1563417997110386e+00 -3.8062397807662095e-02 1.4620808687828104e+00 -3.8062397807662095e-02 5.0032814023538563e+00 -5.8689522610466782e-01 1.4620808687828104e+00 -5.8689522610466782e-01 7.8594255502937160e-01  -1.7341500243404422e+00 3.2755879736912397e-01 1.9686439635336270e+00 3.2755879736912397e-01 4.7765610802862231e+00 -7.2924215876630283e-01 1.9686439635336270e+00 -7.2924215876630283e-01 7.1727042159022680e-01  -1.3649552915186072e+00 -1.6088975243197796e+00 2.2030092868780802e+00 -1.6088975243197796e+00 3.7590371347302147e+00 -1.7096703564637628e-01 2.2030092868780806e+00 -1.7096703564637628e-01 1.0225463579205545e+00  4.2006706746600003e-01 -3.2140499488285901e+00 1.6330526718676388e+00 -3.2140499488285901e+00 1.8064463192249129e+00 6.3102727185199758e-01 1.6330526718676388e+00 6.3102727185199781e-01 1.1640223660659790e+00  2.6499977152705694e+00 -2.3982544871163518e+00 1.1172883996832119e+00 -2.3982544871163514e+00 -1.0411860861381912e+00 1.2332767410941861e+00 1.1172883996832119e+00 1.2332767410941861e+00 1.3196014961521512e+00  3.7039337319751051e+00 -5.5837166019250051e-01 6.2992456690941701e-01 -5.5837166019250051e-01 -1.9618463742039711e+00 1.8308400017167068e+00 6.2992456690941701e-01 1.8308400017167068e+00 1.3347589492280068e+00  3.3873590635927355e+00 1.3526075982579626e+00 -2.1427416267843061e-01 1.3526075982579626e+00 -1.4802263499756871e+00 2.2692805793153021e+00 -2.1427416267843069e-01 2.2692805793153021e+00 1.3956623048668335e+00  1.6469751550448339e+00 2.5206894092897425e+00 -8.3044923068974097e-01 2.5206894092897425e+00 5.9642870923747060e-01 2.1508174231488169e+00 -8.3044923068974097e-01 2.1508174231488169e+00 7.4344960069899746e-01  -3.1821088800811215e-01 2.3184165736335856e+00 -1.4942513289287476e+00 2.3184165736335856e+00 2.7226995727626178e+00 1.7342981270746500e+00 -1.4942513289287476e+00 1.7342981270746500e+00 8.0081151704978659e-01  -2.2055870125252159e+00 4.8676505781782599e-02 1.1299433945380739e+00 4.8676505781782599e-02 1.7674647737759910e+00 8.9546504610189551e-02 1.1299433945380739e+00 8.9546504610189551e-02 2.1722133272401996e+00  -2.1894592209156949e+00 -1.6815821259132716e-01 1.1618330605603184e+00 -1.6815821259132716e-01 2.9135972623313839e+00 -6.0033055214658432e-02 1.1618330605603189e+00 -6.0033055214658404e-02 1.3602967468673535e+00  -2.5413870955780782e+00 -3.1804325632546426e-01 1.0058713377418691e+00 -3.1804325632546426e-01 3.2588000531051251e+00 1.8850021883780602e-01 1.0058713377418687e+00 1.8850021883780604e-01 2.0142764586156896e+00  -2.9037418273602444e+00 -2.8007635057522662e-01 2.0138445684188785e-01 -2.8007635057522662e-01 3.8458087457345478e+00 5.1839121121438037e-01 2.0138445684188797e-01 5.1839121121438037e-01 2.3685963858245103e+00  -2.7881250587806230e+00 -8.1420028537058636e-03 -6.5290327940431836e-01 -8.1420028537058636e-03 4.2521914314919291e+00 1.0478229638958176e+00 -6.5290327940431858e-01 1.0478229638958176e+00 2.0941269759685404e+00  -2.5121190478252466e+00 -4.5605817622682687e-01 -8.3337234560357987e-01 -4.5605817622682687e-01 4.6640896262170433e+00 1.1897384945314120e+00 -8.3337234560357987e-01 1.1897384945314116e+00 1.4335963189099721e+00  -2.5347836646426187e+00 -2.8368303724956312e-01 -7.1689118134467567e-01 -2.8368303724956306e-01 4.6159860188812756e+00 1.4409058352970445e+00 -7.1689118134467567e-01 1.4409058352970445e+00 1.5348352748972058e+00  -2.6916816808231716e+00 4.5218322286333951e-01 -9.1030477307890689e-01 4.5218322286333951e-01 4.5657964864559242e+00 1.1497711794148127e+00 -9.1030477307890689e-01 1.1497711794148127e+00 1.9393234857757571e+00  -2.0719706958805140e+00 7.9530597164624794e-01 -1.7445933478802205e+00 7.9530597164624817e-01 4.4096059124444515e+00 1.2561564251373329e+00 -1.7445933478802205e+00 1.2561564251373332e+00 1.4665769471231935e+00  -1.1828800516844924e+00 1.5955061797830844e-01 2.1098061936240553e+00 1.5955061797830844e-01 6.3569463535583759e-01 -9.8347617286277733e-01 2.1098061936240553e+00 -9.8347617286277733e-01 3.0116324449033680e+00  -7.3004405899890534e-01 5.2917142367004610e-01 1.7186165308827646e+00 5.2917142367004610e-01 2.0285034917496877e-01 -1.5791744855041598e+00 1.7186165308827646e+00 -1.5791744855041598e+00 2.8183742741175557e+00  -4.3622764512293261e-01 1.0730488208590976e+00 1.2813785088593319e+00 1.0730488208590976e+00 -2.1787459982815879e-01 -1.7919496424630412e+00 1.2813785088593319e+00 -1.7919496424630412e+00 3.1497631292962440e+00  2.0268821532790970e-01 6.4646755283748725e-01 5.5378313867659346e-01 6.4646755283748725e-01 -6.3429705520347190e-01 -2.1527289001342895e+00 5.5378313867659346e-01 -2.1527289001342895e+00 2.8285782771420003e+00  5.3419004329034214e-01 4.6461324597711495e-01 2.3189315619225084e-01 4.6461324597711495e-01 -1.1291243802252187e+00 -2.2395184881308854e+00 2.3189315619225084e-01 -2.2395184881308854e+00 3.2988127122416229e+00  5.8432549231755326e-01 -5.0845891758392658e-02 -6.5261847751682656e-01 -5.0845891758392658e-02 -1.0750953207459719e+00 -2.1870884525343266e+00 -6.5261847751682656e-01 -2.1870884525343266e+00 3.1957017103274246e+00  5.5245159754388062e-01 -4.6573169313136220e-01 -1.0989733772585326e+00 -4.6573169313136220e-01 -1.0252043357433809e+00 -2.0161293647183043e+00 -1.0989733772585326e+00 -2.0161293647183043e+00 2.7805072337761363e+00  6.4135776212580695e-02 -7.8691494702307130e-01 -2.2121660742606610e+00 -7.8691494702307130e-01 -1.7687016686811677e-01 -1.2307699198829316e+00 -2.2121660742606615e+00 -1.2307699198829316e+00 2.6980549102763933e+00  -5.7651094416420889e-01 -6.3564103974993591e-01 -2.6510882454948663e+00 -6.3564103974993591e-01 1.8583004209263218e-01 -2.8046821516558523e-01 -2.6510882454948672e+00 -2.8046821516558523e-01 3.1071711808741229e+00  8.8048266961919075e-01 3.9113465272819165e-01 4.4943351011127342e-01 3.9113465272819165e-01 -7.2265027435194806e-01 7.4382016380566851e-01 4.4943351011127347e-01 7.4382016380566851e-01 2.1006625176348739e-01  9.0130298282957877e-01 7.7988602054343392e-01 3.4899784118482458e-01 7.7988602054343392e-01 -7.3432714839116930e-01 8.5796599958842190e-01 3.4899784118482458e-01 8.5796599958842190e-01 3.5094529109385414e-01  1.2248513659730779e-02 8.2958566502400832e-01 5.9970603017061391e-02 8.2958566502400832e-01 -1.4507756646226441e-01 8.8164130196438406e-01 5.9970603017061391e-02 8.8164130196438406e-01 4.5538136224401671e-01  -3.9058031763808593e-01 9.4055390199800082e-01 -6.0615045156549008e-01 9.4055390199800082e-01 8.8183383937733850e-01 7.3640604023879674e-01 -6.0615045156549008e-01 7.3640604023879674e-01 -2.1578326682809941e-03  -7.4552867879109175e-01 6.0651059505881189e-01 -6.3811887149735724e-01 6.0651059505881200e-01 1.3913126586431057e+00 6.2024501543902255e-01 -6.3811887149735724e-01 6.2024501543902255e-01 -1.0725824792790027e-01  -8.4763122286961834e-01 2.5126603935987152e-01 -6.6559863761492999e-01 2.5126603935987152e-01 1.2349067184224065e+00 3.6473111634657274e-01 -6.6559863761492999e-01 3.6473111634657257e-01 3.1780154517997400e-02  -7.2602570233093400e-01 -2.0840020840682652e-01 -8.3375764127877805e-01 -2.0840020840682652e-01 1.1360873557692219e+00 9.2359647624996738e-02 -8.3375764127877805e-01 9.2359647624996821e-02 1.2368425006656495e-02  -4.7993414448078303e-01 -8.6221319769795934e-01 -6.6962452894344493e-01 -8.6221319769795934e-01 1.1126423932890992e+00 -9.7733544156054938e-02 -6.6962452894344482e-01 -9.7733544156054952e-02 -1.7980550398680628e-01  -3.2033983750152462e-01 -9.4681724118929567e-01 -9.0237756831029126e-01 -9.4681724118929544e-01 4.0491894208841234e-01 2.9605812456753827e-01 -9.0237756831029126e-01 2.9605812456753816e-01 2.9596238259075358e-01  6.9838511109307400e-01 -2.5003446319070632e-01 -1.0928125883336572e+00 -2.5003446319070627e-01 -9.5087899174365886e-01 7.2090349405327311e-02 -1.0928125883336572e+00 7.2090349405327311e-02 4.6223059302498709e-01  1.7371232972506319e+00 -2.2561015555629954e-01 -9.7056719698761618e-01 -2.2561015555629946e-01 -1.2062038397082466e+00 -6.4171416897790268e-01 -9.7056719698761618e-01 -6.4171416897790268e-01 2.2552100639410128e-01  2.9482725637411935e+00 -5.1061426862762027e-01 -9.0523196938277795e-01 -5.1061426862762038e-01 -1.9772900901236272e+00 -1.2238322151681209e+00 -9.0523196938277795e-01 -1.2238322151681209e+00 1.2455476627953830e+00  2.8859318885081611e+00 -3.3365338975087783e-01 -8.9369812938349380e-01 -3.3365338975087794e-01 -1.0939313820449557e+00 -2.0613909254270428e+00 -8.9369812938349380e-01 -2.0613909254270428e+00 6.2764232734100889e-01  2.1471131216274140e+00 -6.9318102693178826e-02 -4.5084587918931268e-01 -6.9318102693178785e-02 -8.0311804212579574e-01 -1.4978755754053796e+00 -4.5084587918931268e-01 -1.4978755754053796e+00 -1.7548823186337481e-01  1.8541390260020718e+00 1.1021017564057831e-01 -2.5006520113874653e-01 1.1021017564057832e-01 -1.1767144908487974e+00 -9.2204036312557469e-01 -2.5006520113874647e-01 -9.2204036312557469e-01 6.9622260824747359e-02  1.5723283304291651e+00 -2.6435834147625015e-01 -6.3711183526338022e-01 -2.6435834147625015e-01 -1.5922513892614631e+00 -6.2297211676081421e-01 -6.3711183526338011e-01 -6.2297211676081399e-01 9.5002064978177869e-01  1.1364939287562190e+00 -4.1860834906798200e-01 -4.9192779623875688e-01 -4.1860834906798200e-01 -1.4461278125997530e+00 -3.0328313774503701e-01 -4.9192779623875688e-01 -3.0328313774503701e-01 9.2752162700242213e-01  7.4020757940204285e-01 -3.9727283552888137e-01 -8.3690345161144541e-02 -3.9727283552888143e-01 -1.0081562052137567e+00 2.5544717083208585e-01 -8.3690345161144528e-02 2.5544717083208590e-01 4.5610316020964142e-01  5.5465199153508804e-01 -9.5708555763932690e-01 1.6118735652317664e-01 -9.5708555763932690e-01 -5.9732862340919735e-01 1.2201475360728835e+00 1.6118735652317664e-01 1.2201475360728835e+00 7.0807653018060146e-01  7.4945984641419860e-01 -6.5223173064977169e-01 -3.6225798936471115e-01 -6.5223173064977169e-01 -9.6676196066284337e-01 1.7125569204550948e+00 -3.6225798936471115e-01 1.7125569204550948e+00 1.4284598557891293e+00  3.2139202488686963e-01 2.2582740641137652e-01 -5.0711571405331046e-01 2.2582740641137652e-01 -2.8490452166830543e-01 1.2444721758177220e+00 -5.0711571405331046e-01 1.2444721758177220e+00 1.7786220569427755e-01  3.0476558335719361e-01 1.0568745953573706e-01 -3.3619114155167085e-01 1.0568745953573708e-01 -2.2993057804240516e-01 1.2204920474762662e+00 -3.3619114155167085e-01 1.2204920474762662e+00 4.5670778492264044e-02  4.7229225799974661e-01 -1.2610649773340574e-01 -6.5836488460087370e-02 -1.2610649773340574e-01 -4.0029607016789875e-01 1.1405754708893177e+00 -6.5836488460087314e-02 1.1405754708893177e+00 1.5322526580525393e-02  5.3726140290734337e-01 -2.8560719326901840e-01 2.0902154728685748e-01 -2.8560719326901840e-01 -2.9860412036391099e-01 1.0496233960397474e+00 2.0902154728685773e-01 1.0496233960397474e+00 -7.1008206252899400e-02  4.2352121752387994e-01 -1.9251601335690094e-01 4.6113543406739038e-01 -1.9251601335690094e-01 -2.0525693709734333e-01 1.0762624073100904e+00 4.6113543406739038e-01 1.0762624073100904e+00 -9.2585571783603174e-02  6.7941418298487044e-01 -1.2484646183669559e-01 2.5539377232343785e-01 -1.2484646183669559e-01 4.0250221088990581e-02 8.4768266939718406e-01 2.5539377232343785e-01 8.4768266939718406e-01 -6.5873917643775626e-01  8.0233973460401609e-01 -3.2285695847872953e-01 4.4462293584081575e-01 -3.2285695847872953e-01 1.3283913070825529e-01 4.5363073614195498e-01 4.4462293584081575e-01 4.5363073614195498e-01 -7.9450312774300136e-01  3.4422013532158796e-01 -4.9677216122812434e-01 7.5534294866346396e-01 -4.9677216122812434e-01 3.1130288212682256e-01 5.2943395067446608e-01 7.5534294866346396e-01 5.2943395067446608e-01 -3.9918659398181305e-01  2.9895678199284326e-01 -5.4925403365645731e-01 6.9172413683558398e-01 -5.4925403365645731e-01 6.2272583466738174e-01 1.9243398072109938e-01 6.9172413683558398e-01 1.9243398072109938e-01 -6.8676643442262175e-01  1.4340792831169760e-01 -5.2772408085259537e-01 7.5070604730293922e-01 -5.2772408085259537e-01 8.2826875133710642e-01 1.1332404835501140e-02 7.5070604730293955e-01 1.1332404835501140e-02 -7.3114136341777225e-01  -1.3396230841011900e-01 -2.8486327733086136e-01 7.1423433026874050e-01 -2.8486327733086125e-01 9.2014891829033107e-01 -1.0629119733313790e-01 7.1423433026874050e-01 -1.0629119733313790e-01 -5.6305285951855211e-01  -2.3332881367099598e-01 5.3160143560222757e-02 7.8129585010059122e-01 5.3160143560222757e-02 7.1285238692562114e-01 -2.0408981242112481e-01 7.8129585010059122e-01 -2.0408981242112481e-01 -2.6785488448534145e-01  5.8426055828180876e-02 7.6837382052694331e-02 5.1670857032778006e-01 7.6837382052694359e-02 7.5758565421756552e-01 -3.1993886667345023e-01 5.1670857032778017e-01 -3.1993886667345023e-01 -6.8634192343193678e-01  2.1709561597181518e-01 -3.8400855716067861e-01 -1.7337050486673961e-01 -3.8400855716067867e-01 8.9129251504740503e-01 -5.7807833470652170e-01 -1.7337050486673961e-01 -5.7807833470652170e-01 -9.5554987766773236e-01  -1.5116499486850049e-01 3.3329656961415421e-01 3.9487642015086871e-01 3.3329656961415421e-01 5.9224420450938609e-01 -4.5354126246804649e-01 3.9487642015086871e-01 -4.5354126246804649e-01 -2.9016483366111373e-01  7.5644696656030630e-01 -4.0369996575506967e-01 5.4273038539038754e-01 -4.0369996575506972e-01 -8.9271610265386159e-01 2.7401471589355064e-01 5.4273038539038754e-01 2.7401471589355070e-01 4.4938357339958462e-01  9.2962788956666942e-01 -3.9726033672589273e-01 5.6729326137218772e-01 -3.9726033672589256e-01 -1.0449852650883009e+00 -2.1320890413978849e-03 5.6729326137218761e-01 -2.1320890413979608e-03 4.2710424509394246e-01  1.2442257563681973e+00 -8.7500563647115837e-01 6.3813779230250267e-01 -8.7500563647115881e-01 -1.3694617068178063e+00 -1.2029565074600423e-01 6.3813779230250256e-01 -1.2029565074600423e-01 8.8148198700584568e-01  1.7553448422348783e+00 -7.9718015880781790e-01 7.8730733839591160e-01 -7.9718015880781790e-01 -1.7730120592412302e+00 1.7693081955794832e-01 7.8730733839591194e-01 1.7693081955794834e-01 1.2766038716529828e+00  1.6274347159885663e+00 -7.4428405259428743e-01 7.0081508466275477e-01 -7.4428405259428720e-01 -1.7137050084929002e+00 2.9977256895535220e-01 7.0081508466275477e-01 2.9977256895535220e-01 1.2516746298224328e+00  1.3748531508707296e+00 -4.9441273959357374e-01 4.8093348794872354e-01 -4.9441273959357374e-01 -1.6520867889319117e+00 2.5037038087560504e-01 4.8093348794872354e-01 2.5037038087560504e-01 1.1317245456927638e+00  9.6779597616550994e-01 -4.3277534479517138e-01 3.0389341520763413e-01 -4.3277534479517138e-01 -1.4110075760338114e+00 9.1808117360332731e-02 3.0389341520763413e-01 9.1808117360332731e-02 9.9785726180293599e-01  6.1901579482375924e-01 -3.9961367581581070e-01 6.0083808900040381e-01 -3.9961367581581070e-01 -1.0142514426010802e+00 -2.0242292446915708e-01 6.0083808900040381e-01 -2.0242292446915708e-01 6.8548586834655734e-01  5.3961541552757875e-01 4.6492199671627739e-03 8.7661885637865578e-01 4.6492199671627757e-03 -2.1533677228671913e-01 7.4476934433964692e-02 8.7661885637865578e-01 7.4476934433964692e-02 -1.8985127912801247e-01  1.8911140115327445e+00 7.6149585094014360e-01 -4.6647717379260456e-01 7.6149585094014360e-01 -1.2973303140222248e+00 -7.0543027910920464e-01 -4.6647717379260445e-01 -7.0543027910920464e-01 2.0768886541036355e-01  1.6041141510277388e+00 1.9241695038452493e+00 1.1364182956125352e-01 1.9241695038452493e+00 -5.9350959857548891e-01 -8.7715374191699758e-01 1.1364182956125356e-01 -8.7715374191699758e-01 3.1125819780073399e-01  5.8174492765520558e-01 1.9349052629718821e+00 9.5420497703396848e-02 1.9349052629718819e+00 -6.1434401415683043e-02 -7.5309726865516180e-01 9.5420497703396848e-02 -7.5309726865516180e-01 4.2732592381232881e-01  -6.4171142434041462e-01 1.7561037736228442e+00 4.7737067974938252e-01 1.7561037736228440e+00 1.0321762981986293e+00 -6.6547437196455961e-01 4.7737067974938252e-01 -6.6547437196455961e-01 5.9938436127389705e-01  -1.1447115080802788e+00 1.0025791625384723e+00 4.1717543558253495e-01 1.0025791625384723e+00 1.1369401092163540e+00 -6.3840359444774075e-01 4.1717543558253495e-01 -6.3840359444774075e-01 6.9070668675695446e-01  -1.0631733024878882e+00 3.5857184968644640e-01 5.5307415969774820e-01 3.5857184968644640e-01 1.2943709246450963e+00 -3.3800659823476659e-01 5.5307415969774820e-01 -3.3800659823476659e-01 1.9161429982573100e-01  -8.2384091932443038e-01 -2.5492247761206577e-01 6.0465304299689415e-01 -2.5492247761206582e-01 9.9199633111166474e-01 -2.3422233149865196e-01 6.0465304299689415e-01 -2.3422233149865193e-01 8.5988326674853871e-02  -7.8882677980918758e-01 -3.9095366991377861e-01 2.9962985358250194e-01 -3.9095366991377850e-01 6.8843314479455753e-01 -2.5147941977179283e-01 2.996298535825