<?xml version="1.0"?>
<VTKFile type="UnstructuredGrid"  version="0.1"  >
<UnstructuredGrid>
<Piece  NumberOfPoints="1268" NumberOfCells="4847">
<Points>
<DataArray  type="Float64"  NumberOfComponents="3"  format="ascii">1.994716987487452 0.01317707561264319 -1.202466945460223e-11  1.374072606111497 -0.08614134488653273 -5.388997575085332  -1.285941478930618 0.1916557790035214 -5.691288663606836  -1.59032616235459 -0.4515196446136259 1.626303258728257e-17  0.4950030257755884 2.521650519233041 -5.495391852657774  -0.4107718940653654 -2.429115409112172 -5.58531208084276  -0.9314707163843408 -3.006923447963563 4.87890977618477e-17  1.161824811771535 2.948440156756841 -3.391384395534658e-14  2.146749234505421 0.002696741478414759 -0.5615078450779066  2.330988047973839 -0.000873250973709995 -1.113141311680313  2.540713632977715 -0.1384292375506191 -1.637427654548237  2.645241452520652 -0.2872312815961211 -2.18637082393926  2.504842461151312 -0.2752146673621067 -2.746850782899552  2.287876352721185 -0.2088259978706829 -3.283011632728322  2.137771360922677 -0.2093380261300688 -3.844996501809416  1.970142554575494 -0.2193701374385486 -4.401638277082749  1.701580801829277 -0.1696632515169769 -4.915066532844666  1.398049690886424 0.4419377546899956 -5.387643705321969  1.183972204621215 0.9208338616597355 -5.413149504812257  0.7621482426349403 1.234356207118232 -5.461782499987256  0.2539805730796886 1.370727420898931 -5.519751404145364  -0.2689415860383004 1.319053689498898 -5.578906487138381  -0.7357170559581984 1.076180709179107 -5.631191713357971  -1.086003096318238 0.6812820615514149 -5.669884670156524  -1.65706961757681 -0.5275128747266272 -0.6240725009925172  -1.829082870387909 -0.8347372240299333 -1.153553189134448  -2.030635262011336 -1.097965926806997 -1.693320688638939  -2.148557703924963 -0.9683820133813712 -2.295450526931833  -2.119047321408695 -0.7521727279271558 -2.890676896601294  -1.972500555455803 -0.7106310836492745 -3.509380855831461  -1.885028119342598 -0.4902108162504233 -4.093718100793141  -1.832050776792238 -0.1313823297003599 -4.617858136599065  -1.636180550340053 0.1151199882480144 -5.165527944859976  -1.540434086810702 0.1014447694855235 -7.644826989049428e-17  -1.339902801239663 0.6191128040412099 2.218327606354497e-17  -0.9949589579071262 1.053322092476122 2.12059320661159e-17  -0.5243975458638882 1.346285776146202 7.754217898549941e-16  0.01399251627036286 1.481823287560149 3.252316763596149e-17  0.5696211504784076 1.47677978548424 -7.207855520904863e-17  1.105448032340458 1.331487337928338 1.951563910473908e-16  1.561367740818086 1.018090979386763 -2.179459114756194e-16  1.860006992193919 0.551530302300456 1.369433074745588e-16  -0.152869286718376 2.506583809965366 -5.568804938302105  -0.7781210310064858 2.335338381675429 -5.639249366957451  -1.340550096787874 2.011723800088065 -5.702178028336585  -1.803922993566052 1.555830170950866 -5.753534898075912  -2.144678763029901 1.000979069722826 -5.790734833138769  -2.346903237737564 0.3811866585909049 -5.812061421922149  -2.406990243842066 -0.2684488461825228 -5.817196438260218  -2.318433628103212 -0.9144163570965761 -5.805488779558074  -2.059391262210163 -1.511004864267824 -5.774580158166454  -1.615755841275718 -1.983465489741105 -5.72306417450185  -1.043145925381342 -2.287058241276404 -5.657361969815248  -0.6986882361605687 -2.420627649803484 -5.024556445072709  -0.8272574030199392 -2.685291244074475 -4.476216325063944  -0.8113210073272845 -3.118860027310894 -4.01596683617901  -0.7618552434953355 -3.481598098596065 -3.504026669625047  -0.7509882165597778 -3.609083979854663 -2.886473298216772  -0.7986167670519319 -3.732483084086931 -2.268445488219849  -0.8276969497603353 -3.810997815301134 -1.64593496945388  -0.7425506523451623 -3.557242155569485 -1.078322423839125  -0.7147449622328144 -3.21189056194362 -0.5511080601316157  -1.482234509376526 -2.778582553401298 -5.854479658363816e-16  -1.970737176894139 -2.437284655419533 2.764697292186607e-16  -2.362818572203899 -1.988727212877528 2.439101268600111e-16  -2.642390785384022 -1.462244173776716 5.051059276813266e-16  -2.812149102113852 -0.89052423419162 2.276851973687203e-16  -2.877946727920729 -0.2976446157883296 -1.219909928720168e-16  -2.842947107925845 0.2978601752284433 4.065446096494693e-17  -2.70313036896374 0.8776122116387211 -5.041496169361013e-16  -2.452324348076021 1.418519584933707 4.379274460317988e-16  -2.098265626135573 1.898294456130726 1.951060033519619e-16  -1.658391347368763 2.301023318502569 -1.789574489620802e-16  -1.154148079923361 2.619757341302747 -2.081203863085907e-15  -0.6042202207747882 2.851073703499478 -3.577841418755692e-16  -0.02416138323675775 2.990516581461941 4.065982498622179e-16  0.5710641261211448 3.028216945076794 -1.46882551317968e-16  0.6414151130412097 2.696325287154043 -4.983333021490838  0.771852374565919 2.778456367279237 -4.445188759107248  0.8805845204306011 2.73078881179073 -3.897720120696569  0.9481597620953167 2.69798349057175 -3.343104559074628  0.9815370707090804 2.778214865778854 -2.789250505759619  1.013475345489448 2.861817704396183 -2.235671116027784  1.055849759321274 2.898356228459238 -1.677594140621302  1.093646323460014 2.92793989028903 -1.118725590781912  1.124098871622056 2.957526991478201 -0.5594169689370629  0.2477015793419729 -2.415655802610486 -5.510682951113449  0.8844491790088972 -2.245867158009595 -5.438931443942415  1.464891069119211 -1.932330028996181 -5.373934600293736  1.955087092649627 -1.489613175355717 -5.319502697776375  2.318355026965356 -0.937054784961175 -5.279744576064058  2.524994411863564 -0.307899182343253 -5.257941630215678  2.574632820450045 0.3531084349228537 -5.254020561031156  2.465743861849647 1.006614152640354 -5.268052816559671  2.183897076015212 1.604484044160622 -5.301550147358176  1.722560240631265 2.07491696755195 -5.35506775502591  1.13806318635062 2.378906583716481 -5.422118662603529  1.742182153284979 2.73179858498085 5.854691697147836e-16  2.262480931380501 2.395264875892136 -2.601681534737615e-16  2.698000706832733 1.954727370266727 -3.903113804560263e-16  3.021530388777258 1.426473918441798 1.707421408502106e-16  3.223363606607101 0.8405687193648443 -2.844806418042028e-16  3.305434793487241 0.2261994274297442 -4.472186606099012e-16  3.269241566985055 -0.3926051469820059 3.171555149681837e-16  3.113478077610213 -0.9924495549400153 3.510830505762065e-16  2.840400132149515 -1.548806515270482 -1.707368614952523e-16  2.466120284856568 -2.042983582774378 9.732831365154574e-17  2.008125599488538 -2.460814027017948 -3.577575055983979e-16  1.482521285196868 -2.789563899556613 -4.886146623064541e-17  0.9057866143556688 -3.01678997208197 -2.439392613813594e-16  0.2964958724913082 -3.130681163554852 3.414395345104792e-16  -0.32338307292875 -3.126978161260848 2.926910878106614e-16  -1.29067345658392 -0.3506098753383553 -5.690421630247788  -1.068897680254163 -0.8451623229646739 -5.663999894259847  -0.6782440885714781 -1.219621806060448 -5.6187489875115  -0.168757542531344 -1.390394566692369 -5.560546895724229  0.3611301401510615 -1.294122251639114 -5.500717901478111  0.8191548613516448 -1.005201308695582 -5.449538098373106  1.16817203978903 -0.5892762115769014 -5.411042670828763  1.960898302630318 -0.551652302616722 -8.131516293641286e-17  1.751009740180289 -1.077278642631261 7.445724005953314e-16  1.394016468000002 -1.516729095803803 1.136104663605282e-15  0.9227767039454898 -1.830301465573364 3.434443593283319e-16  0.3780412068884804 -1.984007749105097 8.617772484356591e-16  -0.1885780664025548 -1.977994130030172 2.357202029695971e-16  -0.7327557451871473 -1.821291124380143 1.942410916395698e-17  -1.191068596016128 -1.491774666596192 2.975009434367945e-16  -1.480405544894888 -1.006855825633415 6.954512630084263e-16  -1.812414118534285 0.2561131097252937 -2.664867827914479  2.421751940242729 0.6298287624476981 -1.933377861698098  0.7556418177061754 1.42269463362527 -4.617654324361507  0.003134751711410342 1.574821943356493 -0.9318675177876981  1.015098001669947 1.51699057942374 -0.9441494884276413  0.6193243625380082 1.764115149411371 -1.862230514405671  -0.4757031201037318 1.549728101933577 -1.958273018773558  0.1126459993007786 1.698838152590054 -2.957602797129454  -0.3405660022430232 1.569615851499001 -4.678135257405353  1.818199099779932 0.7365610114574719 -3.763003518505052  -0.9541815370276669 1.23451227632913 -2.875526912859068  -1.269464226480212 1.016489154450913 -4.672047638709048  1.301562892980348 1.557566760682666 -2.802482532053872  -0.7813756340336595 1.414221906310649 -3.725761628685261  -1.58370798409762 0.5643609111372817 -3.581008460136619  -0.988817348255397 1.158392548936659 -1.014254585170146  -1.607700527190565 0.2800106654898483 -1.030081240453645  -1.388203055800784 0.7951310659851955 -1.943712885648593  0.8261955720421881 1.570157055202129 -3.620947225245673  1.681455131778566 1.410849015379531 -1.876189895849114  1.878739160554727 0.943024132521903 -0.9866418074548234  2.103426639579445 1.000735947836943 -2.593434794762663  1.62623803052506 0.6468498306152269 -4.727220189271843  -1.882943490361709 -0.1546739965127431 -1.761716647663214  0.05868355051519467 1.656538949473053 -3.863342338366238  2.465845305360337 0.2632819454094029 -2.663569745038379  1.994842599423799 0.5019775153043848 -0.4779055074204815  2.1671824130763 0.4980244878585698 -1.027636182799239  1.710213566460811 0.9718796190568162 -0.4957578884333736  1.845584590132108 0.2253887364997403 -4.583879812097906  1.579035044615276 0.2924902970866011 -5.101748935835201  1.409777182251665 0.7868327264427526 -5.07202467441607  -1.039178737375989 1.089168173550246 -5.170746090958521  -1.377687418630729 0.6683636420802941 -5.233117919580046  -1.641402128985454 0.4875654733502939 -4.648722230221863  -1.765467255797776 -0.2695484060062747 -1.079683539430899  -1.617858736076732 -0.08318463488274264 -0.5123563299218489  -1.474019211051276 0.4496529111656123 -0.5150171376928306  2.417677350191343 0.3274903893149403 -1.506992657970159 
[...]
<PointData  Tensors="stress"> 
<DataArray  type="Float64"  Name="stress"  NumberOfComponents="9" format="ascii">9.4766461632456167e-01 -1.9833613665454836e-01 -5.7551529610732803e+00 -1.9833613665454836e-01 2.0871792285808213e+00 -7.8313671673342411e-01 -5.7551529610732803e+00 -7.8313671673342411e-01 6.2838653636860879e+00  -1.5594489489731280e+00 9.9518280559871664e-01 2.9680203068626936e+00 9.9518280559871664e-01 9.7388827528051660e+00 -1.6741693190950213e+00 2.9680203068626940e+00 -1.6741693190950215e+00 2.6315723842788845e+00  -6.7023414952239635e-01 1.5442751255208824e+00 -3.5562050033200179e+00 1.5442751255208826e+00 9.3684745341742293e+00 1.8827214356954030e+00 -3.5562050033200179e+00 1.8827214356954025e+00 2.3874416273396326e+00  5.2621764094754087e-01 -7.4805742226683181e-01 5.3684334719388263e+00 -7.4805742226683181e-01 1.9161847960523273e+00 -5.9073730891115295e-01 5.3684334719388263e+00 -5.9073730891115295e-01 6.8070206472279171e+00  2.2243725508384156e+00 -2.0899770308990251e-01 1.1682010399992955e+00 -2.0899770308990251e-01 -1.5454839694279034e+00 1.1464456692894509e+00 1.1682010399992955e+00 1.1464456692894511e+00 9.0815476969949405e-01  3.9495617110164822e+00 -1.4353822739459568e-01 -1.0626920069122177e+00 -1.4353822739459571e-01 -2.4670164468650744e+00 -7.7327234858661209e-01 -1.0626920069122174e+00 -7.7327234858661209e-01 1.2272784164087309e+00  6.0198693746049903e-01 2.5055127066056931e-01 -9.8325381967560488e-01 2.5055127066056931e-01 2.3133882392583663e-01 3.6205455038229246e+00 -9.8325381967560488e-01 3.6205455038229246e+00 2.1495760012576874e+00  3.1714821516549030e-01 5.8366219347116877e-01 1.1776573118063778e+00 5.8366219347116877e-01 1.1282104794497472e+00 -1.6731102739820862e+00 1.1776573118063778e+00 -1.6731102739820862e+00 -5.0876242906271174e-01  -2.0350084781778803e+00 -8.7440555531696551e-01 -3.2293230822006511e+00 -8.7440555531696551e-01 5.5390292682967042e+00 -1.6636900587569332e+00 -3.2293230822006511e+00 -1.6636900587569332e+00 5.1814242940827304e+00  -2.4540983140436268e+00 -1.1839625982018545e+00 -2.5767457204734012e+00 -1.1839625982018542e+00 7.3333717915300527e+00 -1.3124505879868200e+00 -2.5767457204734012e+00 -1.3124505879868200e+00 4.8462146971632523e+00  -2.9596453294501428e+00 -2.0816547350441877e-01 -2.2262439307338382e+00 -2.0816547350441880e-01 7.9850199837806342e+00 -7.1826309221430717e-01 -2.2262439307338382e+00 -7.1826309221430729e-01 5.4206214802594355e+00  -3.3633034789242742e+00 5.5051330518103025e-01 3.6887466241089621e-02 5.5051330518103025e-01 7.8236449938392401e+00 -1.1330320938170568e+00 3.6887466241089607e-02 -1.1330320938170568e+00 6.3823415983369847e+00  -2.4959009334914990e+00 -8.6591389576413741e-02 2.5912205224596625e+00 -8.6591389576413838e-02 9.0348612186268671e+00 -1.4699490001481490e+00 2.5912205224596625e+00 -1.4699490001481490e+00 4.6230873116404085e+00  -2.3507488192720754e+00 -9.3190885111850819e-01 2.2964539177485910e+00 -9.3190885111850796e-01 1.0017693073626317e+01 -5.2586705851553928e-01 2.2964539177485910e+00 -5.2586705851553928e-01 3.3145796120527962e+00  -2.5977910258756696e+00 -3.1490837460646220e-01 2.0129056703211630e+00 -3.1490837460646220e-01 1.0269581686700951e+01 -3.2646824362492266e-01 2.0129056703211630e+00 -3.2646824362492277e-01 3.4551519150367671e+00  -2.2403842596059800e+00 1.6471282369245388e-01 2.6416460363610055e+00 1.6471282369245380e-01 9.7327003366523321e+00 -8.6712377529517803e-01 2.6416460363610055e+00 -8.6712377529517770e-01 3.3197975375112083e+00  -1.2633625067541587e+00 7.2143634595277528e-01 3.4276009311413005e+00 7.2143634595277528e-01 9.6431272366985876e+00 -1.1619148330108953e+00 3.4276009311413005e+00 -1.1619148330108962e+00 2.7215525104483214e+00  -9.3221975941806212e-01 -2.7238062814629833e+00 3.6492052575486280e+00 -2.7238062814629833e+00 8.2593974509184935e+00 -3.0669902234164226e-01 3.6492052575486293e+00 -3.0669902234164226e-01 3.3381978248973385e+00  2.4606012510177036e+00 -5.5229720766996167e+00 2.9042706536134899e+00 -5.5229720766996167e+00 4.5269713435819678e+00 1.1627298891347306e+00 2.9042706536134890e+00 1.1627298891347306e+00 3.7448139421337765e+00  6.4630801300441219e+00 -4.3700919122157122e+00 2.2123295920883543e+00 -4.3700919122157122e+00 -9.6302048213472644e-02 2.3289561228259612e+00 2.2123295920883543e+00 2.3289561228259612e+00 4.2107322052422900e+00  8.2002107055438636e+00 -1.0323668750195547e+00 1.3651944754597281e+00 -1.0323668750195547e+00 -1.8104686856813268e+00 3.3783687046692186e+00 1.3651944754597281e+00 3.3783687046692181e+00 4.3252892681613631e+00  7.6411365175027264e+00 2.4273270166261529e+00 -1.6402256121859263e-01 2.4273270166261534e+00 -7.8314522654238161e-01 4.0543517363457049e+00 -1.6402256121859260e-01 4.0543517363457058e+00 4.0856508369980800e+00  4.7645426548982437e+00 4.6693012686449942e+00 -1.4836874861783316e+00 4.6693012686449942e+00 2.4018937748602398e+00 3.8232234614602225e+00 -1.4836874861783316e+00 3.8232234614602225e+00 3.5213513874371585e+00  1.4669356920185783e+00 4.2853328094137098e+00 -2.6614698472126288e+00 4.2853328094137080e+00 6.2984124352045709e+00 3.1662132006383046e+00 -2.6614698472126288e+00 3.1662132006383055e+00 3.0445889821475287e+00  -2.4998598061936739e+00 -3.5693892156078910e-01 2.9904059385207420e+00 -3.5693892156078910e-01 4.8805976673752367e+00 2.9636686211268448e-01 2.9904059385207420e+00 2.9636686211268454e-01 5.4428235989377942e+00  -2.4535284357050555e+00 -7.9340952775461127e-01 2.6644224509864163e+00 -7.9340952775461127e-01 6.8989328143977735e+00 2.0055740420119664e-01 2.6644224509864163e+00 2.0055740420119644e-01 4.1938793738441564e+00  -2.7947231275646449e+00 -7.9436314571342448e-01 2.3361200952970345e+00 -7.9436314571342448e-01 7.3663614830189834e+00 6.2185750480123692e-01 2.3361200952970345e+00 6.2185750480123680e-01 5.2501722988436192e+00  -3.4076884025069445e+00 -3.3471566744910597e-01 4.7700525711714892e-01 -3.3471566744910597e-01 8.1414181023009622e+00 1.1285999665516264e+00 4.7700525711714897e-01 1.1285999665516266e+00 5.8857413802978380e+00  -3.2430540641473060e+00 9.4691755680280862e-02 -9.7538623906499422e-01 9.4691755680280862e-02 8.8658898763109288e+00 1.8599097701958813e+00 -9.7538623906499422e-01 1.8599097701958813e+00 5.3617191743852537e+00  -2.8836340021126396e+00 -4.4614975614014579e-01 -1.3478007454159062e+00 -4.4614975614014540e-01 9.5882352853374488e+00 2.1882065680577321e+00 -1.3478007454159062e+00 2.1882065680577321e+00 4.1486126105900256e+00  -3.0393884998624694e+00 -2.6687253980509784e-01 -9.9661465678788674e-01 -2.6687253980509817e-01 9.5590526236233888e+00 2.4574866091799707e+00 -9.9661465678788674e-01 2.4574866091799707e+00 4.4274332362709732e+00  -3.0351826168660492e+00 9.2060350506358057e-01 -1.3295588306579795e+00 9.2060350506358057e-01 9.1843886247116711e+00 2.1500372292462084e+00 -1.3295588306579795e+00 2.1500372292462084e+00 5.0793820545448627e+00  -1.9350483955868405e+00 1.2951896859600571e+00 -2.8515406363246858e+00 1.2951896859600573e+00 9.0394160578341296e+00 2.2233294415211380e+00 -2.8515406363246858e+00 2.2233294415211375e+00 4.2551882271800698e+00  3.2358264006880216e-02 -2.9179651150758702e-02 5.1839912215778909e+00 -2.9179651150758702e-02 2.1656257656895299e+00 -1.3001650177239830e+00 5.1839912215778918e+00 -1.3001650177239830e+00 7.2034189124522694e+00  2.4721438313779381e-01 6.3687696430223062e-01 4.4083853481825761e+00 6.3687696430223062e-01 1.8345993983185598e+00 -2.7948245061927381e+00 4.4083853481825761e+00 -2.7948245061927381e+00 7.2518917385764921e+00  7.1421837353041151e-01 1.1859103753172755e+00 3.6861214834943632e+00 1.1859103753172755e+00 1.2869386815385513e+00 -3.6899240892481746e+00 3.6861214834943623e+00 -3.6899240892481759e+00 7.5277863783834666e+00  1.5897060256296232e+00 9.4071031938186112e-01 2.2035285570644159e+00 9.4071031938186112e-01 5.7012473627993088e-01 -4.5844792544886674e+00 2.2035285570644159e+00 -4.5844792544886692e+00 7.6467762088725921e+00  2.0259640008221478e+00 6.4175600239095087e-01 1.3520899380236837e+00 6.4175600239095087e-01 1.5365866980285772e-01 -5.0386790689149166e+00 1.3520899380236837e+00 -5.0386790689149166e+00 7.9097865380961512e+00  2.1893500188321773e+00 8.0515025558021466e-02 -5.1615003654353453e-01 8.0515025558021466e-02 1.1394372076516147e-01 -5.2546064960678773e+00 -5.1615003654353442e-01 -5.2546064960678773e+00 8.1931314206989754e+00  2.1526218820018328e+00 -3.7428466790197301e-01 -1.7524125094013012e+00 -3.7428466790197312e-01 2.7121457779058639e-01 -5.1758266023208286e+00 -1.7524125094013012e+00 -5.1758266023208277e+00 7.1689825912248946e+00  1.7374122205893403e+00 -1.0510073212717688e+00 -4.0268838426905740e+00 -1.0510073212717688e+00 1.0714085597452649e+00 -3.7607304692781001e+00 -4.0268838426905740e+00 -3.7607304692781001e+00 7.8656689074843067e+00  7.4082923555352187e-01 -8.7120941364771687e-01 -5.1825162330270667e+00 -8.7120941364771687e-01 1.7057551214349616e+00 -2.1696197002634392e+00 -5.1825162330270667e+00 -2.1696197002634392e+00 8.5219389133969674e+00  1.9752679582443351e+00 7.1627378087465232e-01 6.2663809774613866e-01 7.1627378087465210e-01 -1.3882190236673693e+00 1.5425025975425852e+00 6.2663809774613866e-01 1.5425025975425852e+00 1.0145682066939672e+00  1.7523300809075217e+00 1.5145558888799293e+00 3.0532057190355266e-01 1.5145558888799293e+00 -9.2825662048071711e-01 1.6524432048289885e+00 3.0532057190355261e-01 1.6524432048289885e+00 9.3593111855659572e-01  6.0888560189285057e-01 1.7543210859111846e+00 -2.7914380944380585e-01 1.7543210859111846e+00 -9.8815864151762023e-02 1.7316436482563384e+00 -2.7914380944380585e-01 1.7316436482563384e+00 1.0724848347384908e+00  -8.0335915457909371e-02 1.9195584837799200e+00 -9.4207284528966639e-01 1.9195584837799200e+00 1.4104035324722477e+00 1.5547168946211640e+00 -9.4207284528966639e-01 1.5547168946211640e+00 5.6061876009608347e-01  -8.6923468675489268e-01 1.2423928982421244e+00 -1.3185383086869602e+00 1.2423928982421242e+00 2.3177567712196132e+00 1.4035054117446519e+00 -1.3185383086869602e+00 1.4035054117446522e+00 4.8149392698130727e-01  -1.3820547257157738e+00 4.2174183386773029e-01 -1.5634610969912155e+00 4.2174183386773056e-01 2.5066893294409436e+00 9.7358148993738691e-01 -1.5634610969912155e+00 9.7358148993738747e-01 7.8115823934102324e-01  -1.1613705034978172e+00 -4.7009705076742281e-01 -1.9479586438725844e+00 -4.7009705076742242e-01 2.5827283340649956e+00 6.1877400524133708e-01 -1.9479586438725824e+00 6.1877400524133719e-01 7.4520393965449949e-01  -5.6310535816190654e-01 -1.5840899307346610e+00 -1.6775243571299021e+00 -1.5840899307346610e+00 1.9367875272299819e+00 2.3721607935762796e-02 -1.6775243571299019e+00 2.3721607935762817e-02 3.3288290950768112e-01  5.2943594768430513e-01 -2.0997811195323282e+00 -1.7751833264765287e+00 -2.0997811195323282e+00 4.6584892921870658e-01 1.1642768821454726e-01 -1.7751833264765287e+00 1.1642768821454724e-01 7.0566195476759219e-01  1.2436576480342649e+00 -9.2953282408357563e-01 -1.6176892432008538e+00 -9.2953282408357574e-01 -1.3251052092041067e+00 -5.6918312373930802e-01 -1.6176892432008538e+00 -5.6918312373930824e-01 1.1158658787196027e+00  2.9929322323996428e+00 -1.3369305269608471e+00 -1.2379687976397102e+00 -1.3369305269608471e+00 -1.8032829858826955e+00 -8.9234627232229935e-01 -1.2379687976397107e+00 -8.9234627232229935e-01 1.0110678806947071e+00  5.2598412140978974e+00 -8.6099234872905872e-01 -1.4772688948352202e+00 -8.6099234872905850e-01 -2.3336060414389270e+00 -2.0258462497934278e+00 -1.4772688948352202e+00 -2.0258462497934278e+00 2.7244653951825391e+00  5.2371451363934698e+00 -6.3307984492805136e-01 -1.3163770919201916e+00 -6.3307984492805081e-01 -9.1966431034731333e-01 -3.1520645085151582e+00 -1.3163770919201918e+00 -3.1520645085151582e+00 1.6489558605874373e+00  4.1769595374106263e+00 -1.6635084577601647e-01 -7.2750624040420386e-01 -1.6635084577601617e-01 -8.5538005948710749e-01 -2.6911104815067044e+00 -7.2750624040420375e-01 -2.6911104815067044e+00 4.1993370715408740e-01  3.4590623568314989e+00 -2.2168491927105002e-02 -5.7895288097218811e-01 -2.2168491927104888e-02 -1.8223269796017418e+00 -1.8257014320151652e+00 -5.7895288097218811e-01 -1.8257014320151652e+00 9.8244647581972033e-01  3.0940099374067160e+00 -6.3396373835299513e-01 -9.8156044264831899e-01 -6.3396373835299513e-01 -2.4473116801324211e+00 -1.1564003889642407e+00 -9.8156044264831899e-01 -1.1564003889642407e+00 2.4917967330793860e+00  2.4141196662779238e+00 -6.7893230260244242e-01 -7.8710453835279370e-01 -6.7893230260244242e-01 -2.5056706539506255e+00 -5.5499896091779044e-01 -7.8710453835279370e-01 -5.5499896091779044e-01 2.6020556755198290e+00  1.5525044075633545e+00 -1.0002197080751247e+00 -1.3928724143327909e-01 -1.0002197080751247e+00 -1.8830123221279578e+00 8.0456311005541137e-01 -1.3928724143327909e-01 8.0456311005541137e-01 1.6318443891481498e+00  1.5607924650268055e+00 -1.4962924010496426e+00 -6.2672318852953803e-03 -1.4962924010496426e+00 -1.1653231659379593e+00 2.3592064473590475e+00 -6.2672318852953742e-03 2.3592064473590475e+00 2.4018074314362248e+00  1.7782636900736271e+00 -1.2393652630609213e+00 -2.3599760833280278e-01 -1.2393652630609213e+00 -1.1936167595819522e+00 3.0985620712308566e+00 -2.3599760833280281e-01 3.0985620712308566e+00 3.6085069983011513e+00  6.1628733766693933e-01 1.9079216965956161e-01 -3.1070185917224064e-01 1.9079216965956161e-01 -1.2475275708873046e-02 3.4267104094151986e+00 -3.1070185917224064e-01 3.4267104094151986e+00 1.6400225926288707e+00  6.0138907467099123e-01 6.3364228211982676e-02 1.8087593141418223e-01 6.3364228211982676e-02 -1.6114100359404313e-01 3.1458433447470235e+00 1.8087593141418223e-01 3.1458433447470235e+00 1.2525980401177323e+00  7.0765737603352696e-01 -1.7431168167867378e-01 8.2592793537845866e-01 -1.7431168167867378e-01 -2.4236675038095074e-01 3.0176268350907236e+00 8.2592793537845866e-01 3.0176268350907236e+00 1.2556381722155403e+00  8.1674667173692239e-01 -4.2867711500115618e-01 1.2328747965141091e+00 -4.2867711500115618e-01 -7.0902258157841444e-02 2.6981965405280421e+00 1.2328747965141094e+00 2.6981965405280421e+00 9.3871282679386769e-01  6.4642739431730911e-01 -3.5591839596015590e-01 1.7254263673266244e+00 -3.5591839596015590e-01 -6.6305685765625386e-02 2.3620060457619036e+00 1.7254263673266244e+00 2.3620060457619036e+00 8.2202515256736619e-01  1.0710068646312252e+00 -2.4332780993899564e-01 1.5522277561898852e+00 -2.4332780993899564e-01 1.5170197677763692e-01 1.7703893354441440e+00 1.5522277561898852e+00 1.7703893354441440e+00 -5.0018303859734747e-01  1.1624534782116769e+00 -3.9040020629431815e-01 1.8376558288516021e+00 -3.9040020629431815e-01 2.7100876858641321e-01 1.0371021930262352e+00 1.8376558288516029e+00 1.0371021930262356e+00 -7.0701886074586029e-01  7.0552903751723572e-01 -7.5818920705483173e-01 2.4310129411543726e+00 -7.5818920705483173e-01 6.9604713646515504e-01 7.8549403216285785e-01 2.4310129411543726e+00 7.8549403216285785e-01 4.3476064339103893e-02  7.7995526423682315e-01 -8.1486374219623581e-01 2.2077715131883275e+00 -8.1486374219623581e-01 1.0656124053737748e+00 8.0214535458686814e-02 2.2077715131883275e+00 8.0214535458686814e-02 -7.4275560226352555e-01  5.0074018549347132e-01 -8.4386596598080366e-01 2.2259942485628259e+00 -8.4386596598080366e-01 1.4427514064808507e+00 -2.7096766809360673e-01 2.2259942485628259e+00 -2.7096766809360673e-01 -7.9871188751292566e-01  -6.5725214965420067e-02 -5.0726647965437588e-01 2.0503139864359392e+00 -5.0726647965437588e-01 1.6681368503786891e+00 -8.7762395773735591e-01 2.0503139864359392e+00 -8.7762395773735591e-01 -4.4252064051480844e-01  -2.1454649576288803e-01 1.0812040597169574e-01 2.0010701158652089e+00 1.0812040597169574e-01 1.4584637953363675e+00 -1.2241513498953112e+00 2.0010701158652089e+00 -1.2241513498953112e+00 1.4150054176311117e-01  2.9845777465615486e-01 1.7149905131584950e-01 1.2997401597462539e+00 1.7149905131584947e-01 1.5439956671950226e+00 -1.3689484978026869e+00 1.2997401597462539e+00 -1.3689484978026871e+00 -9.5458077027504451e-01  3.8266068205043047e-01 -6.7882083670916094e-01 -1.8055109919703724e-01 -6.7882083670916082e-01 1.8482785886403768e+00 -1.7990429026864132e+00 -1.8055109919703718e-01 -1.7990429026864132e+00 -1.5544799336711390e+00  -1.5074461032607453e-01 5.3981999446427686e-01 9.2385604435200619e-01 5.3981999446427686e-01 1.1964292177875973e+00 -1.7218194809016076e+00 9.2385604435200619e-01 -1.7218194809016076e+00 -2.7005287235861798e-02  2.0959867442567877e+00 -8.6101158634491959e-01 8.2898543626452792e-01 -8.6101158634491959e-01 -1.8046046710106984e+00 7.8761672049354425e-01 8.2898543626452759e-01 7.8761672049354459e-01 1.3703157905112946e+00  2.0478520372958968e+00 -8.9893933432473039e-01 1.0613928405092268e+00 -8.9893933432473061e-01 -2.0191616256462455e+00 9.5115611097305680e-02 1.0613928405092268e+00 9.5115611097305722e-02 1.5633025562148237e+00  2.7025051573567809e+00 -1.4095326364963661e+00 1.1122366798260310e+00 -1.4095326364963661e+00 -2.2868084160706412e+00 -8.6328057850041301e-02 1.1122366798260312e+00 -8.6328057850041301e-02 2.3258599503909325e+00  3.5719474670681146e+00 -1.4333772223324506e+00 1.2170353655834791e+00 -1.4333772223324504e+00 -2.5210990462376515e+00 3.4336310108690848e-01 1.2170353655834791e+00 3.4336310108690848e-01 2.9131011832049243e+00  3.2824726388467811e+00 -1.2125763748230545e+00 1.1811273647241716e+00 -1.2125763748230542e+00 -2.4935142490650950e+00 6.1537810434282381e-01 1.1811273647241716e+00 6.1537810434282381e-01 2.8900886411622109e+00  2.9618669874717911e+00 -9.4488976925700485e-01 9.2545113614287811e-01 -9.4488976925700485e-01 -2.6007388496034207e+00 4.8098611560923221e-01 9.2545113614287811e-01 4.8098611560923221e-01 2.9019765716727530e+00  2.3284637056130713e+00 -7.7929077828621984e-01 7.3781971317238626e-01 -7.7929077828621984e-01 -2.5588196580696345e+00 2.2478448532201753e-01 7.3781971317238626e-01 2.2478448532201753e-01 3.0375972006797247e+00  1.6439876641292697e+00 -7.3186590131196827e-01 1.3156325178939265e+00 -7.3186590131196827e-01 -2.3285819262712502e+00 -1.8132311704542695e-01 1.3156325178939265e+00 -1.8132311704542695e-01 2.9125478520215684e+00  9.7927890381824301e-01 -4.5158845625706817e-01 1.4346059491369931e+00 -4.5158845625706817e-01 -1.0278706481372730e+00 -1.3937655805458890e-01 1.4346059491369931e+00 -1.3937655805458890e-01 3.4049912321121573e-01  3.6586139016713348e+00 1.0583934045153647e+00 -7.0404549753861656e-01 1.0583934045153647e+00 -2.1751750737074684e+00 -1.4729436162281693e+00 -7.0404549753861623e-01 -1.4729436162281693e+00 1.3889687289047263e+00  3.2243402805366057e+00 2.6836351328471144e+00 -2.5684277177634712e-01 2.6836351328471144e+00 -1.3008354995380385e+00 -1.6010357735860439e+00 -2.5684277177634712e-01 -1.6010357735860439e+00 1.5344378808191454e+00  1.4337401270261274e+00 3.1770953050568655e+00 2.8307835618975247e-01 3.1770953050568664e+00 -9.7601447291379095e-02 -1.5388155781446402e+00 2.8307835618975247e-01 -1.5388155781446402e+00 1.8958429812080928e+00  -4.0060097432540742e-01 3.1151224773971218e+00 6.3334003569408381e-01 3.1151224773971218e+00 1.7974044315558868e+00 -1.4669967998189390e+00 6.3334003569408370e-01 -1.4669967998189390e+00 1.8972103363737176e+00  -1.6531338926465433e+00 1.9270714193344620e+00 1.0064601489834941e+00 1.9270714193344620e+00 2.3633710508385120e+00 -1.3955164610589312e+00 1.0064601489834941e+00 -1.3955164610589312e+00 2.0895258059682851e+00  -1.9546260967256626e+00 7.1298904786513706e-01 1.4454629378108088e+00 7.1298904786513706e-01 2.9452187977260018e+00 -1.0228297480485264e+00 1.4454629378108088e+00 -1.0228297480485267e+00 1.5972762902726334e+00  -1.5798491315374190e+00 -7.3655111488809399e-01 1.7389672588561835e+00 -7.3655111488809399e-01 2.3932736266652799e+00 -5.9794964754512270e-01 1.7389672588561835e+00 -5.9794964754512259e-01 1.1550125333216570e+00  -1.5424613224811929e+00 -1.1234441905906487e+00 1.4659979362194646e+00 -1.1234441905906487e+00 1.7349126226261584e+00 -4.8973121112956436e-01 1.4659979362194646e+00 -4.8973