<?xml version="1.0"?>
<VTKFile type="UnstructuredGrid"  version="0.1"  >
<UnstructuredGrid>
<Piece  NumberOfPoints="1268" NumberOfCells="4847">
<Points>
<DataArray  type="Float64"  NumberOfComponents="3"  format="ascii">1.994716987487452 0.01317707561264319 -1.202466945460223e-11  1.374072606111497 -0.08614134488653273 -5.388997575085332  -1.285941478930618 0.1916557790035214 -5.691288663606836  -1.59032616235459 -0.4515196446136259 1.626303258728257e-17  0.4950030257755884 2.521650519233041 -5.495391852657774  -0.4107718940653654 -2.429115409112172 -5.58531208084276  -0.9314707163843408 -3.006923447963563 4.87890977618477e-17  1.161824811771535 2.948440156756841 -3.391384395534658e-14  2.146749234505421 0.002696741478414759 -0.5615078450779066  2.330988047973839 -0.000873250973709995 -1.113141311680313  2.540713632977715 -0.1384292375506191 -1.637427654548237  2.645241452520652 -0.2872312815961211 -2.18637082393926  2.504842461151312 -0.2752146673621067 -2.746850782899552  2.287876352721185 -0.2088259978706829 -3.283011632728322  2.137771360922677 -0.2093380261300688 -3.844996501809416  1.970142554575494 -0.2193701374385486 -4.401638277082749  1.701580801829277 -0.1696632515169769 -4.915066532844666  1.398049690886424 0.4419377546899956 -5.387643705321969  1.183972204621215 0.9208338616597355 -5.413149504812257  0.7621482426349403 1.234356207118232 -5.461782499987256  0.2539805730796886 1.370727420898931 -5.519751404145364  -0.2689415860383004 1.319053689498898 -5.578906487138381  -0.7357170559581984 1.076180709179107 -5.631191713357971  -1.086003096318238 0.6812820615514149 -5.669884670156524  -1.65706961757681 -0.5275128747266272 -0.6240725009925172  -1.829082870387909 -0.8347372240299333 -1.153553189134448  -2.030635262011336 -1.097965926806997 -1.693320688638939  -2.148557703924963 -0.9683820133813712 -2.295450526931833  -2.119047321408695 -0.7521727279271558 -2.890676896601294  -1.972500555455803 -0.7106310836492745 -3.509380855831461  -1.885028119342598 -0.4902108162504233 -4.093718100793141  -1.832050776792238 -0.1313823297003599 -4.617858136599065  -1.636180550340053 0.1151199882480144 -5.165527944859976  -1.540434086810702 0.1014447694855235 -7.644826989049428e-17  -1.339902801239663 0.6191128040412099 2.218327606354497e-17  -0.9949589579071262 1.053322092476122 2.12059320661159e-17  -0.5243975458638882 1.346285776146202 7.754217898549941e-16  0.01399251627036286 1.481823287560149 3.252316763596149e-17  0.5696211504784076 1.47677978548424 -7.207855520904863e-17  1.105448032340458 1.331487337928338 1.951563910473908e-16  1.561367740818086 1.018090979386763 -2.179459114756194e-16  1.860006992193919 0.551530302300456 1.369433074745588e-16  -0.152869286718376 2.506583809965366 -5.568804938302105  -0.7781210310064858 2.335338381675429 -5.639249366957451  -1.340550096787874 2.011723800088065 -5.702178028336585  -1.803922993566052 1.555830170950866 -5.753534898075912  -2.144678763029901 1.000979069722826 -5.790734833138769  -2.346903237737564 0.3811866585909049 -5.812061421922149  -2.406990243842066 -0.2684488461825228 -5.817196438260218  -2.318433628103212 -0.9144163570965761 -5.805488779558074  -2.059391262210163 -1.511004864267824 -5.774580158166454  -1.615755841275718 -1.983465489741105 -5.72306417450185  -1.043145925381342 -2.287058241276404 -5.657361969815248  -0.6986882361605687 -2.420627649803484 -5.024556445072709  -0.8272574030199392 -2.685291244074475 -4.476216325063944  -0.8113210073272845 -3.118860027310894 -4.01596683617901  -0.7618552434953355 -3.481598098596065 -3.504026669625047  -0.7509882165597778 -3.609083979854663 -2.886473298216772  -0.7986167670519319 -3.732483084086931 -2.268445488219849  -0.8276969497603353 -3.810997815301134 -1.64593496945388  -0.7425506523451623 -3.557242155569485 -1.078322423839125  -0.7147449622328144 -3.21189056194362 -0.5511080601316157  -1.482234509376526 -2.778582553401298 -5.854479658363816e-16  -1.970737176894139 -2.437284655419533 2.764697292186607e-16  -2.362818572203899 -1.988727212877528 2.439101268600111e-16  -2.642390785384022 -1.462244173776716 5.051059276813266e-16  -2.812149102113852 -0.89052423419162 2.276851973687203e-16  -2.877946727920729 -0.2976446157883296 -1.219909928720168e-16  -2.842947107925845 0.2978601752284433 4.065446096494693e-17  -2.70313036896374 0.8776122116387211 -5.041496169361013e-16  -2.452324348076021 1.418519584933707 4.379274460317988e-16  -2.098265626135573 1.898294456130726 1.951060033519619e-16  -1.658391347368763 2.301023318502569 -1.789574489620802e-16  -1.154148079923361 2.619757341302747 -2.081203863085907e-15  -0.6042202207747882 2.851073703499478 -3.577841418755692e-16  -0.02416138323675775 2.990516581461941 4.065982498622179e-16  0.5710641261211448 3.028216945076794 -1.46882551317968e-16  0.6414151130412097 2.696325287154043 -4.983333021490838  0.771852374565919 2.778456367279237 -4.445188759107248  0.8805845204306011 2.73078881179073 -3.897720120696569  0.9481597620953167 2.69798349057175 -3.343104559074628  0.9815370707090804 2.778214865778854 -2.789250505759619  1.013475345489448 2.861817704396183 -2.235671116027784  1.055849759321274 2.898356228459238 -1.677594140621302  1.093646323460014 2.92793989028903 -1.118725590781912  1.124098871622056 2.957526991478201 -0.5594169689370629  0.2477015793419729 -2.415655802610486 -5.510682951113449  0.8844491790088972 -2.245867158009595 -5.438931443942415  1.464891069119211 -1.932330028996181 -5.373934600293736  1.955087092649627 -1.489613175355717 -5.319502697776375  2.318355026965356 -0.937054784961175 -5.279744576064058  2.524994411863564 -0.307899182343253 -5.257941630215678  2.574632820450045 0.3531084349228537 -5.254020561031156  2.465743861849647 1.006614152640354 -5.268052816559671  2.183897076015212 1.604484044160622 -5.301550147358176  1.722560240631265 2.07491696755195 -5.35506775502591  1.13806318635062 2.378906583716481 -5.422118662603529  1.742182153284979 2.73179858498085 5.854691697147836e-16  2.262480931380501 2.395264875892136 -2.601681534737615e-16  2.698000706832733 1.954727370266727 -3.903113804560263e-16  3.021530388777258 1.426473918441798 1.707421408502106e-16  3.223363606607101 0.8405687193648443 -2.844806418042028e-16  3.305434793487241 0.2261994274297442 -4.472186606099012e-16  3.269241566985055 -0.3926051469820059 3.171555149681837e-16  3.113478077610213 -0.9924495549400153 3.510830505762065e-16  2.840400132149515 -1.548806515270482 -1.707368614952523e-16  2.466120284856568 -2.042983582774378 9.732831365154574e-17  2.008125599488538 -2.460814027017948 -3.577575055983979e-16  1.482521285196868 -2.789563899556613 -4.886146623064541e-17  0.9057866143556688 -3.01678997208197 -2.439392613813594e-16  0.2964958724913082 -3.130681163554852 3.414395345104792e-16  -0.32338307292875 -3.126978161260848 2.926910878106614e-16  -1.29067345658392 -0.3506098753383553 -5.690421630247788  -1.068897680254163 -0.8451623229646739 -5.663999894259847  -0.6782440885714781 -1.219621806060448 -5.6187489875115  -0.168757542531344 -1.390394566692369 -5.560546895724229  0.3611301401510615 -1.294122251639114 -5.500717901478111  0.8191548613516448 -1.005201308695582 -5.449538098373106  1.16817203978903 -0.5892762115769014 -5.411042670828763  1.960898302630318 -0.551652302616722 -8.131516293641286e-17  1.751009740180289 -1.077278642631261 7.445724005953314e-16  1.394016468000002 -1.516729095803803 1.136104663605282e-15  0.9227767039454898 -1.830301465573364 3.434443593283319e-16  0.3780412068884804 -1.984007749105097 8.617772484356591e-16  -0.1885780664025548 -1.977994130030172 2.357202029695971e-16  -0.7327557451871473 -1.821291124380143 1.942410916395698e-17  -1.191068596016128 -1.491774666596192 2.975009434367945e-16  -1.480405544894888 -1.006855825633415 6.954512630084263e-16  -1.812414118534285 0.2561131097252937 -2.664867827914479  2.421751940242729 0.6298287624476981 -1.933377861698098  0.7556418177061754 1.42269463362527 -4.617654324361507  0.003134751711410342 1.574821943356493 -0.9318675177876981  1.015098001669947 1.51699057942374 -0.9441494884276413  0.6193243625380082 1.764115149411371 -1.862230514405671  -0.4757031201037318 1.549728101933577 -1.958273018773558  0.1126459993007786 1.698838152590054 -2.957602797129454  -0.3405660022430232 1.569615851499001 -4.678135257405353  1.818199099779932 0.7365610114574719 -3.763003518505052  -0.9541815370276669 1.23451227632913 -2.875526912859068  -1.269464226480212 1.016489154450913 -4.672047638709048  1.301562892980348 1.557566760682666 -2.802482532053872  -0.7813756340336595 1.414221906310649 -3.725761628685261  -1.58370798409762 0.5643609111372817 -3.581008460136619  -0.988817348255397 1.158392548936659 -1.014254585170146  -1.607700527190565 0.2800106654898483 -1.030081240453645  -1.388203055800784 0.7951310659851955 -1.943712885648593  0.8261955720421881 1.570157055202129 -3.620947225245673  1.681455131778566 1.410849015379531 -1.876189895849114  1.878739160554727 0.943024132521903 -0.9866418074548234  2.103426639579445 1.000735947836943 -2.593434794762663  1.62623803052506 0.6468498306152269 -4.727220189271843  -1.882943490361709 -0.1546739965127431 -1.761716647663214  0.05868355051519467 1.656538949473053 -3.863342338366238  2.465845305360337 0.2632819454094029 -2.663569745038379  1.994842599423799 0.5019775153043848 -0.4779055074204815  2.1671824130763 0.4980244878585698 -1.027636182799239  1.710213566460811 0.9718796190568162 -0.4957578884333736  1.845584590132108 0.2253887364997403 -4.583879812097906  1.579035044615276 0.2924902970866011 -5.101748935835201  1.409777182251665 0.7868327264427526 -5.07202467441607  -1.039178737375989 1.089168173550246 -5.170746090958521  -1.377687418630729 0.6683636420802941 -5.233117919580046  -1.641402128985454 0.4875654733502939 -4.648722230221863  -1.765467255797776 -0.2695484060062747 -1.079683539430899  -1.617858736076732 -0.08318463488274264 -0.5123563299218489  -1.474019211051276 0.4496529111656123 -0.5150171376928306  2.417677350191343 0.3274903893149403 -1.506992657970159 
[...]
<PointData  Tensors="stress"> 
<DataArray  type="Float64"  Name="stress"  NumberOfComponents="9" format="ascii">1.1717313042025417e+00 -1.9468036116037649e-01 -6.0587333915432300e+00 -1.9468036116037649e-01 2.2890827233346700e+00 -9.0910745678725480e-01 -6.0587333915432300e+00 -9.0910745678725480e-01 6.7976900468522681e+00  -1.4771406781438789e+00 1.0576527599007941e+00 3.0731409850221554e+00 1.0576527599007941e+00 1.0316355026109253e+01 -1.7263448189511916e+00 3.0731409850221545e+00 -1.7263448189511919e+00 2.8925982677173088e+00  -5.3089602480483655e-01 1.6329097212006181e+00 -3.7042190954705738e+00 1.6329097212006172e+00 9.8707664213670530e+00 1.9433151932221135e+00 -3.7042190954705734e+00 1.9433151932221135e+00 2.6663641055294258e+00  7.1644263305710476e-01 -7.6286567369330183e-01 5.6627463478701818e+00 -7.6286567369330183e-01 2.1003684828986269e+00 -5.2578389233615974e-01 5.6627463478701801e+00 -5.2578389233615974e-01 7.3511792996913075e+00  2.3353303755757104e+00 -2.2277829987841330e-01 1.2069156483490897e+00 -2.2277829987841338e-01 -1.5876450108578533e+00 1.2376277353183585e+00 1.2069156483490897e+00 1.2376277353183582e+00 1.0127275544092207e+00  4.1260880229386627e+00 -1.5033420550313426e-01 -1.0838820253827621e+00 -1.5033420550313420e-01 -2.5490241674418956e+00 -8.2767412236596183e-01 -1.0838820253827621e+00 -8.2767412236596183e-01 1.3650444006485252e+00  6.3544069112601609e-01 2.0524470527073427e-01 -9.5212611377056378e-01 2.0524470527073427e-01 3.1699624857953651e-01 3.8500314383453453e+00 -9.5212611377056378e-01 3.8500314383453453e+00 2.4071479398428255e+00  3.4120130801438497e-01 5.8602032220491096e-01 1.2165112799255167e+00 5.8602032220491096e-01 1.1704447472969974e+00 -1.8334776788416043e+00 1.2165112799255167e+00 -1.8334776788416043e+00 -4.6146599490696383e-01  -1.9211998086303528e+00 -9.0815681205456233e-01 -3.4253228636356825e+00 -9.0815681205456233e-01 5.9181683582275380e+00 -1.7425130117823555e+00 -3.4253228636356825e+00 -1.7425130117823555e+00 5.5572065183127526e+00  -2.3720804989833026e+00 -1.2456735455077459e+00 -2.7203844108921733e+00 -1.2456735455077457e+00 7.8041042628654917e+00 -1.3449595570995592e+00 -2.7203844108921733e+00 -1.3449595570995592e+00 5.2036296116995322e+00  -2.9058782690540008e+00 -2.1321137410497576e-01 -2.3415729789042947e+00 -2.1321137410497584e-01 8.4540618804663445e+00 -7.2427714753456485e-01 -2.3415729789042947e+00 -7.2427714753456496e-01 5.8063698075109995e+00  -3.3302002754525479e+00 5.7687233801364091e-01 3.8022669344991829e-02 5.7687233801364091e-01 8.2725198976946075e+00 -1.1565016632610376e+00 3.8022669344991829e-02 -1.1565016632610376e+00 6.8072749177012355e+00  -2.4318590807576808e+00 -8.6416721383636153e-02 2.7085906337282175e+00 -8.6416721383636250e-02 9.5149674360156595e+00 -1.5054114659282427e+00 2.7085906337282175e+00 -1.5054114659282427e+00 4.9838094596126812e+00  -2.2916812587364492e+00 -9.5159872214978958e-01 2.3981214943784401e+00 -9.5159872214978969e-01 1.0558610741849565e+01 -5.3580931453870684e-01 2.3981214943784401e+00 -5.3580931453870684e-01 3.6292416502065850e+00  -2.5500398905984278e+00 -3.0910349817536070e-01 2.0967581092221890e+00 -3.0910349817536065e-01 1.0812697690728262e+01 -3.3195305662484953e-01 2.0967581092221890e+00 -3.3195305662484959e-01 3.7749584609588736e+00  -2.1783536836977064e+00 1.9286639105349684e-01 2.7542729716809191e+00 1.9286639105349698e-01 1.0232762924834777e+01 -8.8925119553751786e-01 2.7542729716809191e+00 -8.8925119553751786e-01 3.6283098583580822e+00  -1.1563363901664434e+00 7.7569585690338860e-01 3.5578201030478218e+00 7.7569585690338860e-01 1.0166486114548734e+01 -1.1971100099798289e+00 3.5578201030478218e+00 -1.1971100099798286e+00 2.9830052453566487e+00  -8.2593061519636812e-01 -2.8133673447889680e+00 3.7838270527479669e+00 -2.8133673447889680e+00 8.7526118682163627e+00 -3.0164008618559812e-01 3.7838270527479669e+00 -3.0164008618559812e-01 3.6276039930505197e+00  2.6980154264535674e+00 -5.7343342327948106e+00 3.0058742739064326e+00 -5.7343342327948106e+00 4.8579428907602962e+00 1.2246044890359118e+00 3.0058742739064321e+00 1.2246044890359122e+00 4.0759432843489947e+00  6.8749710213064503e+00 -4.5526970342704889e+00 2.2834537506451578e+00 -4.5526970342704871e+00 7.4116138237443591e-02 2.4474722528329300e+00 2.2834537506451582e+00 2.4474722528329300e+00 4.5804543418436889e+00  8.6930181783865770e+00 -1.0919896794588702e+00 1.3992701145708319e+00 -1.0919896794588702e+00 -1.7132360876022157e+00 3.5218517404432821e+00 1.3992701145708322e+00 3.5218517404432839e+00 4.6859209957891652e+00  8.1075027665649770e+00 2.5183921343795417e+00 -1.8766862050987321e-01 2.5183921343795417e+00 -6.3949511059786468e-01 4.2162110574502085e+00 -1.8766862050987326e-01 4.2162110574502085e+00 4.4170457193198365e+00  5.1456470468457596e+00 4.8549082501054093e+00 -1.5773489153078215e+00 4.8549082501054093e+00 2.6417670034742082e+00 3.9632389129191181e+00 -1.5773489153078215e+00 3.9632389129191181e+00 3.8653804922090949e+00  1.7288108944900547e+00 4.4670442320797008e+00 -2.7923135482451831e+00 4.4670442320797008e+00 6.6761544671329869e+00 3.2770639124012222e+00 -2.7923135482451831e+00 3.2770639124012222e+00 3.3418944193861995e+00  -2.4062390673983538e+00 -4.1244584899124581e-01 3.2091866793620909e+00 -4.1244584899124581e-01 5.2448089202100610e+00 3.0948089179150984e-01 3.2091866793620909e+00 3.0948089179150984e-01 5.8450225849965438e+00  -2.3753120869367592e+00 -8.5803714503691220e-01 2.8341247230550675e+00 -8.5803714503691220e-01 7.3410241945169865e+00 2.1334338305883216e-01 2.8341247230550675e+00 2.1334338305883210e-01 4.5498461692157495e+00  -2.7285667939984517e+00 -8.2204243907159769e-01 2.4886065056427822e+00 -8.2204243907159769e-01 7.8269442800642830e+00 6.3865089598641533e-01 2.4886065056427822e+00 6.3865089598641533e-01 5.6233035325783183e+00  -3.3824994798237276e+00 -3.0591547091322208e-01 5.1262726536878989e-01 -3.0591547091322208e-01 8.6320962373266532e+00 1.1619329005380568e+00 5.1262726536878978e-01 1.1619329005380568e+00 6.2955850867065912e+00  -3.2160572756183790e+00 1.3339745130357486e-01 -1.0116289433480874e+00 1.3339745130357486e-01 9.3747440875257997e+00 1.9153867635961093e+00 -1.0116289433480874e+00 1.9153867635961090e+00 5.7445242155815270e+00  -2.8572814268646365e+00 -4.2258437653811182e-01 -1.3991614111928856e+00 -4.2258437653811182e-01 1.0116299301433878e+01 2.2642050467093426e+00 -1.3991614111928856e+00 2.2642050467093426e+00 4.4860660035647255e+00  -3.0304755485744450e+00 -2.4364303185835387e-01 -1.0097061223012851e+00 -2.4364303185835359e-01 1.0096357415429175e+01 2.5471863045307130e+00 -1.0097061223012851e+00 2.5471863045307130e+00 4.7894985160325749e+00  -3.0082489508436536e+00 9.8664296733594359e-01 -1.3499195843754972e+00 9.8664296733594326e-01 9.6913932189197940e+00 2.2321877450916459e+00 -1.3499195843754972e+00 2.2321877450916459e+00 5.4666712988453039e+00  -1.8395121851427891e+00 1.3701282999023543e+00 -2.9670867717589471e+00 1.3701282999023543e+00 9.5370208708214719e+00 2.2946574884567603e+00 -2.9670867717589471e+00 2.2946574884567603e+00 4.6005039892345980e+00  2.3686914057287614e-01 -4.7590717984396617e-02 5.4816871850721567e+00 -4.7590717984396604e-02 2.3437594516569971e+00 -1.3150823471651345e+00 5.4816871850721567e+00 -1.3150823471651345e+00 7.6880830221870031e+00  4.1714889544806039e-01 6.3798280928857032e-01 4.6686103599037612e+00 6.3798280928857032e-01 2.0317248063602280e+00 -2.8950546994158177e+00 4.6686103599037612e+00 -2.8950546994158177e+00 7.7758875776496970e+00  8.9604735626240073e-01 1.1619611307382836e+00 3.9243010421017321e+00 1.1619611307382836e+00 1.4750835803711120e+00 -3.8672004315889303e+00 3.9243010421017321e+00 -3.8672004315889303e+00 8.0247301980073367e+00  1.7709804852222673e+00 9.4550286186547883e-01 2.3758430017455807e+00 9.4550286186547883e-01 7.3683765386513855e-01 -4.7894014483582490e+00 2.3758430017455807e+00 -4.7894014483582490e+00 8.2012054770107596e+00  2.2050987325522620e+00 6.3454469446028050e-01 1.4744291427468232e+00 6.3454469446028050e-01 3.5224282656788591e-01 -5.3006001573933217e+00 1.4744291427468232e+00 -5.3006001573933217e+00 8.4268649214373692e+00  2.3771842970086623e+00 9.5252622719474017e-02 -4.7292358881609714e-01 9.5252622719474017e-02 2.9335869382305518e-01 -5.5303827702819532e+00 -4.7292358881609714e-01 -5.5303827702819532e+00 8.7547687138683976e+00  2.3353113559018470e+00 -3.5969304445781053e-01 -1.8060931821172523e+00 -3.5969304445781053e-01 4.9676308809169106e-01 -5.4858554664664787e+00 -1.8060931821172523e+00 -5.4858554664664787e+00 7.6688760373612759e+00  1.9345688356234556e+00 -1.0575248349460349e+00 -4.1534820744476955e+00 -1.0575248349460349e+00 1.2441552599653132e+00 -4.0078482566929221e+00 -4.1534820744476955e+00 -4.0078482566929221e+00 8.4556739381258907e+00  9.2630319956337215e-01 -8.7462108627765889e-01 -5.3839130879954853e+00 -8.7462108627765889e-01 1.8986390829350961e+00 -2.3732032391591931e+00 -5.3839130879954853e+00 -2.3732032391591931e+00 9.1213504693303680e+00  2.1111737301005515e+00 7.4176315107426216e-01 6.1696930616335233e-01 7.4176315107426238e-01 -1.4526726816946287e+00 1.6200167305395090e+00 6.1696930616335210e-01 1.6200167305395090e+00 1.1287333962221677e+00  1.8438698562349094e+00 1.5799500680330067e+00 2.7279505740671628e-01 1.5799500680330067e+00 -9.2792671314734376e-01 1.7385344891375929e+00 2.7279505740671645e-01 1.7385344891375929e+00 1.0129187910143471e+00  6.8843438432817905e-01 1.8479104626996246e+00 -3.4337793156874807e-01 1.8479104626996246e+00 -7.4269185514462904e-02 1.8121137438391546e+00 -3.4337793156874807e-01 1.8121137438391546e+00 1.1687949895751317e+00  -2.6508641624661024e-02 2.0105740719626692e+00 -1.0056479201493527e+00 2.0105740719626692e+00 1.4835604518197099e+00 1.6305538564045237e+00 -1.0056479201493527e+00 1.6305538564045239e+00 6.3738432749324025e-01  -8.6034552845418188e-01 1.2960033970827896e+00 -1.3987611805674856e+00 1.2960033970827891e+00 2.4080254097816858e+00 1.4562694699354644e+00 -1.3987611805674856e+00 1.4562694699354644e+00 5.5290515649514338e-01  -1.4078352569418751e+00 4.4681414822538962e-01 -1.6537894318797841e+00 4.4681414822538973e-01 2.6452681122502986e+00 1.0068148831490193e+00 -1.6537894318797852e+00 1.0068148831490196e+00 8.6678704246449600e-01  -1.1701435719146247e+00 -4.8198347173905520e-01 -2.0605764777476905e+00 -4.8198347173905509e-01 2.7493565661760591e+00 6.3592222229288542e-01 -2.0605764777476905e+00 6.3592222229288564e-01 8.2816395696781420e-01  -5.5463404965574348e-01 -1.6429772782960630e+00 -1.7735352992638893e+00 -1.6429772782960630e+00 2.0401263244431780e+00 6.2968007441131209e-03 -1.7735352992638898e+00 6.2968007441131357e-03 3.9417149721404826e-01  6.0435735676055591e-01 -2.2099919858690420e+00 -1.8550785053352059e+00 -2.2099919858690420e+00 5.1251040707450091e-01 7.0835417352925284e-02 -1.8550785053352059e+00 7.0835417352925242e-02 7.6411161119000282e-01  1.3347077328434598e+00 -1.0060235758298044e+00 -1.6567710348027505e+00 -1.0060235758298042e+00 -1.3555443203218089e+00 -6.5874048117240191e-01 -1.6567710348027505e+00 -6.5874048117240180e-01 1.2028874070543254e+00  3.1386871362322508e+00 -1.4344885124592777e+00 -1.2477870144067909e+00 -1.4344885124592777e+00 -1.8490839805113364e+00 -9.3658149349711584e-01 -1.2477870144067909e+00 -9.3658149349711584e-01 1.1080054470429963e+00  5.4916492847375933e+00 -8.9839333560992751e-01 -1.5196793920487823e+00 -8.9839333560992773e-01 -2.3323216849635386e+00 -2.1150153872656681e+00 -1.5196793920487823e+00 -2.1150153872656681e+00 2.8939542080795708e+00  5.4689483614966239e+00 -6.9448038849418259e-01 -1.3589189333897398e+00 -6.9448038849418292e-01 -8.7230886400277352e-01 -3.2554278072953053e+00 -1.3589189333897396e+00 -3.2554278072953053e+00 1.7921242594378419e+00  4.3972319754751297e+00 -1.8745742047279340e-01 -7.3753131055008048e-01 -1.8745742047279343e-01 -8.3032012463913973e-01 -2.8122248077561216e+00 -7.3753131055008048e-01 -2.8122248077561216e+00 5.1040917434159716e-01  3.6413107288958853e+00 -5.9972532067026171e-02 -5.9053234583935144e-01 -5.9972532067026227e-02 -1.8672191397035314e+00 -1.9185969734943167e+00 -5.9053234583935155e-01 -1.9185969734943167e+00 1.1189279913019647e+00  3.2619231522089733e+00 -6.7737784684069746e-01 -9.8954120110044475e-01 -6.7737784684069746e-01 -2.5032321730370506e+00 -1.2173833973039840e+00 -9.8954120110044463e-01 -1.2173833973039840e+00 2.6719368620898796e+00  2.5385971656939379e+00 -7.2119033832808344e-01 -7.9477853208423144e-01 -7.2119033832808344e-01 -2.5806534840688373e+00 -5.6323890345820549e-01 -7.9477853208423166e-01 -5.6323890345820538e-01 2.8129449637281847e+00  1.6620139726330663e+00 -1.0589055514143384e+00 -1.3910154774932931e-01 -1.0589055514143384e+00 -1.9661923265582171e+00 8.5705613069710429e-01 -1.3910154774932931e-01 8.5705613069710440e-01 1.8198914894042308e+00  1.6867751986790047e+00 -1.5309703719525589e+00 -4.6122853081171722e-03 -1.5309703719525589e+00 -1.2181643051840767e+00 2.4430488101626038e+00 -4.6122853081171766e-03 2.4430488101626033e+00 2.6010643771943696e+00  1.8934725380481314e+00 -1.2995916749068315e+00 -1.9453027331918632e-01 -1.2995916749068315e+00 -1.1753315095175159e+00 3.2315917481980465e+00 -1.9453027331918632e-01 3.2315917481980465e+00 3.8610871245670615e+00  6.4075437084562348e-01 1.6720983003971854e-01 -2.3419338577857707e-01 1.6720983003971854e-01 5.6998467777784320e-02 3.6395282640945097e+00 -2.3419338577857707e-01 3.6395282640945097e+00 1.8636837394519759e+00  6.0809187814549381e-01 5.8762805891315287e-02 2.8252571426545325e-01 5.8762805891315252e-02 -1.0496155192165947e-01 3.3379426422860003e+00 2.8252571426545325e-01 3.3379426422860003e+00 1.4614118876243025e+00  7.0737439501243193e-01 -1.6717177323064636e-01 9.4584786483476724e-01 -1.6717177323064636e-01 -1.8409539869149624e-01 3.1942936020991493e+00 9.4584786483476724e-01 3.1942936020991493e+00 1.4668042606873801e+00  8.1441179230199767e-01 -4.2703856212492775e-01 1.3709694107714347e+00 -4.2703856212492775e-01 4.3830435278915470e-03 2.8616239637822147e+00 1.3709694107714354e+00 2.8616239637822147e+00 1.1294567028950984e+00  6.5399231414127568e-01 -3.3887538341060175e-01 1.8841017316284117e+00 -3.3887538341060175e-01 -2.1489288880662222e-02 2.4760463674334368e+00 1.8841017316284117e+00 2.4760463674334368e+00 9.8511322193553652e-01  1.0833973323035053e+00 -2.2786426410883975e-01 1.7362255161205113e+00 -2.2786426410883975e-01 1.8541730987523267e-01 1.8659741557059313e+00 1.7362255161205111e+00 1.8659741557059313e+00 -3.8932190798121702e-01  1.1788737198434329e+00 -3.9134784419998730e-01 2.0251618173366936e+00 -3.9134784419998736e-01 3.0353478912962012e-01 1.0887906404114458e+00 2.0251618173366936e+00 1.0887906404114458e+00 -6.1619684439838529e-01  7.5935604877645635e-01 -7.5231978269903954e-01 2.6404088899428517e+00 -7.5231978269903932e-01 7.3339133033927451e-01 7.8606971502604572e-01 2.6404088899428517e+00 7.8606971502604572e-01 1.5635671697124515e-01  8.3750732797713234e-01 -8.1742513268205774e-01 2.3980474954265949e+00 -8.1742513268205774e-01 1.0922300375833429e+00 4.0713526931387058e-02 2.3980474954265953e+00 4.0713526931387058e-02 -6.7638772177964612e-01  5.5878484425972064e-01 -8.5836837880535222e-01 2.3981244729276785e+00 -8.5836837880535222e-01 1.4739628146650714e+00 -3.4457326084583478e-01 2.3981244729276781e+00 -3.4457326084583478e-01 -7.5568145922069507e-01  -2.1655515321972563e-02 -5.2393551965917273e-01 2.2054968993785287e+00 -5.2393551965917273e-01 1.7133446804274448e+00 -9.9643687831463346e-01 2.2054968993785287e+00 -9.9643687831463346e-01 -3.7659482002688355e-01  -1.7325281723430475e-01 9.9550277973286319e-02 2.1318269482984218e+00 9.9550277973286319e-02 1.5090140493370816e+00 -1.3781601875957434e+00 2.1318269482984218e+00 -1.3781601875957434e+00 2.5458209996465736e-01  3.4834220309612079e-01 1.6578802102442206e-01 1.3960058973670955e+00 1.6578802102442206e-01 1.5946591805821291e+00 -1.5323316242495684e+00 1.3960058973670957e+00 -1.5323316242495686e+00 -9.0438144850002467e-01  4.0414579081767132e-01 -6.8650175410256586e-01 -1.4435143114561819e-01 -6.8650175410256586e-01 1.9346212432634062e+00 -1.9511901667702016e+00 -1.4435143114561838e-01 -1.9511901667702014e+00 -1.5640964701168794e+00  -1.3239789213519859e-01 5.3449670289704354e-01 9.6827971328610740e-01 5.3449670289704354e-01 1.2477620482763521e+00 -1.8963889384111288e+00 9.6827971328610740e-01 -1.8963889384111288e+00 5.4792462959055495e-02  2.2487479404808886e+00 -9.2343224020980719e-01 8.1498410538810750e-01 -9.2343224020980685e-01 -1.8816661219155879e+00 8.5126394486802592e-01 8.1498410538810739e-01 8.5126394486802626e-01 1.5012026157651250e+00  2.1739493350090289e+00 -9.4154324253858335e-01 1.0835778510917189e+00 -9.4154324253858335e-01 -2.0978448330182493e+00 1.2545147907084195e-01 1.0835778510917196e+00 1.2545147907084198e-01 1.6976510149348722e+00  2.8710120941679240e+00 -1.4551086695105555e+00 1.1362197857550589e+00 -1.4551086695105562e+00 -2.3537030498579408e+00 -6.0328374828969952e-02 1.1362197857550582e+00 -6.0328374828969938e-02 2.4845002579743736e+00  3.7574499146319860e+00 -1.4961799967455789e+00 1.2336702382136953e+00 -1.4961799967455789e+00 -2.5626400887413046e+00 3.7049422666188747e-01 1.2336702382136953e+00 3.7049422666188747e-01 3.0967767469820466e+00  3.4531732247002047e+00 -1.2584548918949132e+00 1.1994417342415273e+00 -1.2584548918949132e+00 -2.5424823468532232e+00 6.5232317214568236e-01 1.1994417342415273e+00 6.5232317214568236e-01 3.0753002661276079e+00  3.1166695526533053e+00 -9.9254032737048947e-01 9.4416440057243411e-01 -9.9254032737048947e-01 -2.6598706782906425e+00 4.9766739592623049e-01 9.4416440057243411e-01 4.9766739592623049e-01 3.1106021148420568e+00  2.4903215071415223e+00 -8.1481832983640567e-01 7.7028342984939857e-01 -8.1481832983640567e-01 -2.6376571683707160e+00 2.3622960048800407e-01 7.7028342984939857e-01 2.3622960048800407e-01 3.2759719476167009e+00  1.7764701810187726e+00 -7.6615546283634983e-01 1.3565000724520677e+00 -7.6615546283634983e-01 -2.4223518403299642e+00 -1.8179586561474390e-01 1.3565000724520677e+00 -1.8179586561474390e-01 3.1583242540792864e+00  1.0265197132111126e+00 -5.1469167612269640e-01 1.4670530095109966e+00 -5.1469167612269640e-01 -1.1573760888852751e+00 -1.5595175636396322e-01 1.4670530095109966e+00 -1.5595175636396322e-01 4.7699489283927804e-01  3.8382794023649169e+00 1.0855440351239622e+00 -7.0170057618933801e-01 1.0855440351239622e+00 -2.2288497189211922e+00 -1.5568625413008734e+00 -7.0170057618933823e-01 -1.5568625413008734e+00 1.5256136598515999e+00  3.3748588383282576e+00 2.7680978760230888e+00 -2.6682220902567805e-01 2.7680978760230888e+00 -1.3150086282251803e+00 -1.6892732879523160e+00 -2.6682220902567805e-01 -1.6892732879523160e+00 1.6872298973578586e+00  1.5506183661269677e+00 3.2895715193353969e+00 3.1292072411828781e-01 3.2895715193353969e+00 -9.5231290933960502e-02 -1.6057326120802093e+00 3.1292072411828781e-01 -1.6057326120802093e+00 2.0767708477715896e+00  -3.5417978272063300e-01 3.2319393427706093e+00 6.8174142963507678e-01 3.2319393427706093e+00 1.9121909298089907e+00 -1.5423722597308016e+00 6.8174142963507678e-01 -1.5423722597308016e+00 2.0304823093935509e+00  -1.6659644018106030e+00 2.0167718228538627e+00 1.0800129416448008e+00 2.0167718228538627e+00 2.5282121784339471e+00 -1.4547945769408170e+00 1.0800129416448008e+00 -1.4547945769408170e+00 2.2289555227314199e+00  -2.0001203039753022e+00 7.5031979318772446e-01 1.5381320784069734e+00 7.5031979318772446e-01 3.1417468910298529e+00 -1.0610933594408392e+00 1.5381320784069734e+00 -1.0610933594408392e+00 1.7499963790853108e+00  -1.6185344535917643e+00 -7.8785350479533178e-01 1.8503472231258782e+00 -7.8785350479533178e-01 2.5462395794961576e+00 -6.1261930073754289e-01 1.8503472231258782e+00 -6.1261930073754278e-01 1.2859881401316644e+00  -1.5624204653290978e+00 -1.1997946947653946e+00 1.5935440632759341e+00 -1.1997946947653946e+00 1.8669035302725834e+00 -4.7795524782338616e-01 1.5935440632759341e+00 -4.77955247