<?xml version="1.0"?>
<VTKFile type="UnstructuredGrid"  version="0.1"  >
<UnstructuredGrid>
<Piece  NumberOfPoints="1268" NumberOfCells="4847">
<Points>
<DataArray  type="Float64"  NumberOfComponents="3"  format="ascii">1.994716987487452 0.01317707561264319 -1.202466945460223e-11  1.374072606111497 -0.08614134488653273 -5.388997575085332  -1.285941478930618 0.1916557790035214 -5.691288663606836  -1.59032616235459 -0.4515196446136259 1.626303258728257e-17  0.4950030257755884 2.521650519233041 -5.495391852657774  -0.4107718940653654 -2.429115409112172 -5.58531208084276  -0.9314707163843408 -3.006923447963563 4.87890977618477e-17  1.161824811771535 2.948440156756841 -3.391384395534658e-14  2.146749234505421 0.002696741478414759 -0.5615078450779066  2.330988047973839 -0.000873250973709995 -1.113141311680313  2.540713632977715 -0.1384292375506191 -1.637427654548237  2.645241452520652 -0.2872312815961211 -2.18637082393926  2.504842461151312 -0.2752146673621067 -2.746850782899552  2.287876352721185 -0.2088259978706829 -3.283011632728322  2.137771360922677 -0.2093380261300688 -3.844996501809416  1.970142554575494 -0.2193701374385486 -4.401638277082749  1.701580801829277 -0.1696632515169769 -4.915066532844666  1.398049690886424 0.4419377546899956 -5.387643705321969  1.183972204621215 0.9208338616597355 -5.413149504812257  0.7621482426349403 1.234356207118232 -5.461782499987256  0.2539805730796886 1.370727420898931 -5.519751404145364  -0.2689415860383004 1.319053689498898 -5.578906487138381  -0.7357170559581984 1.076180709179107 -5.631191713357971  -1.086003096318238 0.6812820615514149 -5.669884670156524  -1.65706961757681 -0.5275128747266272 -0.6240725009925172  -1.829082870387909 -0.8347372240299333 -1.153553189134448  -2.030635262011336 -1.097965926806997 -1.693320688638939  -2.148557703924963 -0.9683820133813712 -2.295450526931833  -2.119047321408695 -0.7521727279271558 -2.890676896601294  -1.972500555455803 -0.7106310836492745 -3.509380855831461  -1.885028119342598 -0.4902108162504233 -4.093718100793141  -1.832050776792238 -0.1313823297003599 -4.617858136599065  -1.636180550340053 0.1151199882480144 -5.165527944859976  -1.540434086810702 0.1014447694855235 -7.644826989049428e-17  -1.339902801239663 0.6191128040412099 2.218327606354497e-17  -0.9949589579071262 1.053322092476122 2.12059320661159e-17  -0.5243975458638882 1.346285776146202 7.754217898549941e-16  0.01399251627036286 1.481823287560149 3.252316763596149e-17  0.5696211504784076 1.47677978548424 -7.207855520904863e-17  1.105448032340458 1.331487337928338 1.951563910473908e-16  1.561367740818086 1.018090979386763 -2.179459114756194e-16  1.860006992193919 0.551530302300456 1.369433074745588e-16  -0.152869286718376 2.506583809965366 -5.568804938302105  -0.7781210310064858 2.335338381675429 -5.639249366957451  -1.340550096787874 2.011723800088065 -5.702178028336585  -1.803922993566052 1.555830170950866 -5.753534898075912  -2.144678763029901 1.000979069722826 -5.790734833138769  -2.346903237737564 0.3811866585909049 -5.812061421922149  -2.406990243842066 -0.2684488461825228 -5.817196438260218  -2.318433628103212 -0.9144163570965761 -5.805488779558074  -2.059391262210163 -1.511004864267824 -5.774580158166454  -1.615755841275718 -1.983465489741105 -5.72306417450185  -1.043145925381342 -2.287058241276404 -5.657361969815248  -0.6986882361605687 -2.420627649803484 -5.024556445072709  -0.8272574030199392 -2.685291244074475 -4.476216325063944  -0.8113210073272845 -3.118860027310894 -4.01596683617901  -0.7618552434953355 -3.481598098596065 -3.504026669625047  -0.7509882165597778 -3.609083979854663 -2.886473298216772  -0.7986167670519319 -3.732483084086931 -2.268445488219849  -0.8276969497603353 -3.810997815301134 -1.64593496945388  -0.7425506523451623 -3.557242155569485 -1.078322423839125  -0.7147449622328144 -3.21189056194362 -0.5511080601316157  -1.482234509376526 -2.778582553401298 -5.854479658363816e-16  -1.970737176894139 -2.437284655419533 2.764697292186607e-16  -2.362818572203899 -1.988727212877528 2.439101268600111e-16  -2.642390785384022 -1.462244173776716 5.051059276813266e-16  -2.812149102113852 -0.89052423419162 2.276851973687203e-16  -2.877946727920729 -0.2976446157883296 -1.219909928720168e-16  -2.842947107925845 0.2978601752284433 4.065446096494693e-17  -2.70313036896374 0.8776122116387211 -5.041496169361013e-16  -2.452324348076021 1.418519584933707 4.379274460317988e-16  -2.098265626135573 1.898294456130726 1.951060033519619e-16  -1.658391347368763 2.301023318502569 -1.789574489620802e-16  -1.154148079923361 2.619757341302747 -2.081203863085907e-15  -0.6042202207747882 2.851073703499478 -3.577841418755692e-16  -0.02416138323675775 2.990516581461941 4.065982498622179e-16  0.5710641261211448 3.028216945076794 -1.46882551317968e-16  0.6414151130412097 2.696325287154043 -4.983333021490838  0.771852374565919 2.778456367279237 -4.445188759107248  0.8805845204306011 2.73078881179073 -3.897720120696569  0.9481597620953167 2.69798349057175 -3.343104559074628  0.9815370707090804 2.778214865778854 -2.789250505759619  1.013475345489448 2.861817704396183 -2.235671116027784  1.055849759321274 2.898356228459238 -1.677594140621302  1.093646323460014 2.92793989028903 -1.118725590781912  1.124098871622056 2.957526991478201 -0.5594169689370629  0.2477015793419729 -2.415655802610486 -5.510682951113449  0.8844491790088972 -2.245867158009595 -5.438931443942415  1.464891069119211 -1.932330028996181 -5.373934600293736  1.955087092649627 -1.489613175355717 -5.319502697776375  2.318355026965356 -0.937054784961175 -5.279744576064058  2.524994411863564 -0.307899182343253 -5.257941630215678  2.574632820450045 0.3531084349228537 -5.254020561031156  2.465743861849647 1.006614152640354 -5.268052816559671  2.183897076015212 1.604484044160622 -5.301550147358176  1.722560240631265 2.07491696755195 -5.35506775502591  1.13806318635062 2.378906583716481 -5.422118662603529  1.742182153284979 2.73179858498085 5.854691697147836e-16  2.262480931380501 2.395264875892136 -2.601681534737615e-16  2.698000706832733 1.954727370266727 -3.903113804560263e-16  3.021530388777258 1.426473918441798 1.707421408502106e-16  3.223363606607101 0.8405687193648443 -2.844806418042028e-16  3.305434793487241 0.2261994274297442 -4.472186606099012e-16  3.269241566985055 -0.3926051469820059 3.171555149681837e-16  3.113478077610213 -0.9924495549400153 3.510830505762065e-16  2.840400132149515 -1.548806515270482 -1.707368614952523e-16  2.466120284856568 -2.042983582774378 9.732831365154574e-17  2.008125599488538 -2.460814027017948 -3.577575055983979e-16  1.482521285196868 -2.789563899556613 -4.886146623064541e-17  0.9057866143556688 -3.01678997208197 -2.439392613813594e-16  0.2964958724913082 -3.130681163554852 3.414395345104792e-16  -0.32338307292875 -3.126978161260848 2.926910878106614e-16  -1.29067345658392 -0.3506098753383553 -5.690421630247788  -1.068897680254163 -0.8451623229646739 -5.663999894259847  -0.6782440885714781 -1.219621806060448 -5.6187489875115  -0.168757542531344 -1.390394566692369 -5.560546895724229  0.3611301401510615 -1.294122251639114 -5.500717901478111  0.8191548613516448 -1.005201308695582 -5.449538098373106  1.16817203978903 -0.5892762115769014 -5.411042670828763  1.960898302630318 -0.551652302616722 -8.131516293641286e-17  1.751009740180289 -1.077278642631261 7.445724005953314e-16  1.394016468000002 -1.516729095803803 1.136104663605282e-15  0.9227767039454898 -1.830301465573364 3.434443593283319e-16  0.3780412068884804 -1.984007749105097 8.617772484356591e-16  -0.1885780664025548 -1.977994130030172 2.357202029695971e-16  -0.7327557451871473 -1.821291124380143 1.942410916395698e-17  -1.191068596016128 -1.491774666596192 2.975009434367945e-16  -1.480405544894888 -1.006855825633415 6.954512630084263e-16  -1.812414118534285 0.2561131097252937 -2.664867827914479  2.421751940242729 0.6298287624476981 -1.933377861698098  0.7556418177061754 1.42269463362527 -4.617654324361507  0.003134751711410342 1.574821943356493 -0.9318675177876981  1.015098001669947 1.51699057942374 -0.9441494884276413  0.6193243625380082 1.764115149411371 -1.862230514405671  -0.4757031201037318 1.549728101933577 -1.958273018773558  0.1126459993007786 1.698838152590054 -2.957602797129454  -0.3405660022430232 1.569615851499001 -4.678135257405353  1.818199099779932 0.7365610114574719 -3.763003518505052  -0.9541815370276669 1.23451227632913 -2.875526912859068  -1.269464226480212 1.016489154450913 -4.672047638709048  1.301562892980348 1.557566760682666 -2.802482532053872  -0.7813756340336595 1.414221906310649 -3.725761628685261  -1.58370798409762 0.5643609111372817 -3.581008460136619  -0.988817348255397 1.158392548936659 -1.014254585170146  -1.607700527190565 0.2800106654898483 -1.030081240453645  -1.388203055800784 0.7951310659851955 -1.943712885648593  0.8261955720421881 1.570157055202129 -3.620947225245673  1.681455131778566 1.410849015379531 -1.876189895849114  1.878739160554727 0.943024132521903 -0.9866418074548234  2.103426639579445 1.000735947836943 -2.593434794762663  1.62623803052506 0.6468498306152269 -4.727220189271843  -1.882943490361709 -0.1546739965127431 -1.761716647663214  0.05868355051519467 1.656538949473053 -3.863342338366238  2.465845305360337 0.2632819454094029 -2.663569745038379  1.994842599423799 0.5019775153043848 -0.4779055074204815  2.1671824130763 0.4980244878585698 -1.027636182799239  1.710213566460811 0.9718796190568162 -0.4957578884333736  1.845584590132108 0.2253887364997403 -4.583879812097906  1.579035044615276 0.2924902970866011 -5.101748935835201  1.409777182251665 0.7868327264427526 -5.07202467441607  -1.039178737375989 1.089168173550246 -5.170746090958521  -1.377687418630729 0.6683636420802941 -5.233117919580046  -1.641402128985454 0.4875654733502939 -4.648722230221863  -1.765467255797776 -0.2695484060062747 -1.079683539430899  -1.617858736076732 -0.08318463488274264 -0.5123563299218489  -1.474019211051276 0.4496529111656123 -0.5150171376928306  2.417677350191343 0.3274903893149403 -1.506992657970159 
[...]
<PointData  Tensors="stress"> 
<DataArray  type="Float64"  Name="stress"  NumberOfComponents="9" format="ascii">1.2203031174921062e+00 -1.9372406051634156e-01 -6.1223981673526850e+00 -1.9372406051634156e-01 2.3325024439742084e+00 -9.3564920796054429e-01 -6.1223981673526850e+00 -9.3564920796054429e-01 6.9083903887355724e+00  -1.4579487279702770e+00 1.0712435735116024e+00 3.0953388431459214e+00 1.0712435735116024e+00 1.0440373792334318e+01 -1.7376941169786631e+00 3.0953388431459214e+00 -1.7376941169786635e+00 2.9490475443735420e+00  -4.9959570890762683e-01 1.6518995559672931e+00 -3.7356059810640265e+00 1.6518995559672931e+00 9.9782044849253158e+00 1.9555569342096231e+00 -3.7356059810640261e+00 1.9555569342096235e+00 2.7267648268252498e+00  7.5790578404286135e-01 -7.6583566979630879e-01 5.7245125003571031e+00 -7.6583566979630879e-01 2.1398876369272264e+00 -5.1196280051878329e-01 5.7245125003571031e+00 -5.1196280051878340e-01 7.4682331856149871e+00  2.3585117158658968e+00 -2.2664296870741307e-01 1.2131503930862975e+00 -2.2664296870741318e-01 -1.5962502019835785e+00 1.2563912926793659e+00 1.2131503930862968e+00 1.2563912926793663e+00 1.0349100834455456e+00  4.1639298481899392e+00 -1.5133989148640500e-01 -1.0878691339989508e+00 -1.5133989148640478e-01 -2.5658084030462853e+00 -8.3979892229559960e-01 -1.0878691339989508e+00 -8.3979892229559960e-01 1.3948847417796328e+00  6.4283094490313775e-01 1.9581615957744009e-01 -9.4475151893431242e-01 1.9581615957743997e-01 3.3575106847395408e-01 3.8982336942504365e+00 -9.4475151893431242e-01 3.8982336942504365e+00 2.4631632706852438e+00  3.4651966989219701e-01 5.8705472272632941e-01 1.2236674948725443e+00 5.8705472272632941e-01 1.1794148541591298e+00 -1.8677570412520661e+00 1.2236674948725443e+00 -1.8677570412520661e+00 -4.5080188283720835e-01  -1.8956588333913393e+00 -9.1486142077187782e-01 -3.4664886380623430e+00 -9.1486142077187782e-01 5.9993311409306767e+00 -1.7588753644085025e+00 -3.4664886380623430e+00 -1.7588753644085025e+00 5.6387225549103279e+00  -2.3527460866088745e+00 -1.2582070454146563e+00 -2.7513011571922195e+00 -1.2582070454146563e+00 7.9049283902924667e+00 -1.3512511381101979e+00 -2.7513011571922195e+00 -1.3512511381101979e+00 5.2810700159360513e+00  -2.8927434337864697e+00 -2.1395233017911339e-01 -2.3663254945241419e+00 -2.1395233017911316e-01 8.5545553638326499e+00 -7.2510195090647522e-01 -2.3663254945241419e+00 -7.2510195090647489e-01 5.8897888800582683e+00  -3.3215113688698761e+00 5.8294982407123896e-01 3.8393090505751029e-02 5.8294982407123885e-01 8.3686690312831509e+00 -1.1613633170852400e+00 3.8393090505751029e-02 -1.1613633170852400e+00 6.8990261990227228e+00  -2.4167108968679472e+00 -8.6293373375187610e-02 2.7334670528280585e+00 -8.6293373375187596e-02 9.6178783146055196e+00 -1.5126933973179817e+00 2.7334670528280585e+00 -1.5126933973179817e+00 5.0613363106339611e+00  -2.2776114824639988e+00 -9.5566342140854588e-01 2.4195179839215255e+00 -9.5566342140854588e-01 1.0674839729338414e+01 -5.3762752630771349e-01 2.4195179839215255e+00 -5.3762752630771349e-01 3.6973474820340568e+00  -2.5384650937256867e+00 -3.0764298255885753e-01 2.1142376912975505e+00 -3.0764298255885753e-01 1.0929441061789920e+01 -3.3296058090905550e-01 2.1142376912975505e+00 -3.3296058090905550e-01 3.8440904524327006e+00  -2.1638056530522674e+00 1.9901649757103912e-01 2.7780970813186112e+00 1.9901649757103926e-01 1.0339766682490916e+01 -8.9398424224470463e-01 2.7780970813186112e+00 -8.9398424224470441e-01 3.6952302393897449e+00  -1.1322404925827148e+00 7.8736230220299774e-01 3.5852093866845935e+00 7.8736230220299774e-01 1.0278839817962213e+01 -1.2046240384238607e+00 3.5852093866845935e+00 -1.2046240384238598e+00 3.0397121654061197e+00  -8.0185158948046675e-01 -2.8319873654777363e+00 3.8123841327109336e+00 -2.8319873654777363e+00 8.8582642375032883e+00 -3.0050215123451535e-01 3.8123841327109345e+00 -3.0050215123451518e-01 3.6904243067297164e+00  2.7490250411206358e+00 -5.7790991714230486e+00 3.0271114894037998e+00 -5.7790991714230486e+00 4.9300985042407390e+00 1.2376798600209955e+00 3.0271114894038003e+00 1.2376798600209955e+00 4.1479618398522975e+00  6.9631752986547815e+00 -4.5912902374438254e+00 2.2980855977808288e+00 -4.5912902374438254e+00 1.1196029670214611e-01 2.4724912341455201e+00 2.2980855977808288e+00 2.4724912341455201e+00 4.6605616663702900e+00  8.7987134897981143e+00 -1.1048566160495399e+00 1.4060477167484988e+00 -1.1048566160495399e+00 -1.6910766830765345e+00 3.5520099768810298e+00 1.4060477167484986e+00 3.5520099768810307e+00 4.7641393717057179e+00  8.2073456654862724e+00 2.5374998622199865e+00 -1.9310586217527895e-01 2.5374998622199860e+00 -6.0735446584922992e-01 4.2503493209686871e+00 -1.9310586217527895e-01 4.2503493209686871e+00 4.4887525153306855e+00  5.2281175375320892e+00 4.8938315856286492e+00 -1.5974646573309215e+00 4.8938315856286492e+00 2.6941222353913723e+00 3.9926207178018203e+00 -1.5974646573309215e+00 3.9926207178018203e+00 3.9396061439312722e+00  1.7859626420482959e+00 4.5054167844492321e+00 -2.8201404266870771e+00 4.5054167844492321e+00 6.7570704067685039e+00 3.3000348035539098e+00 -2.8201404266870771e+00 3.3000348035539098e+00 3.4064646859952794e+00  -2.3840361077695968e+00 -4.2375311543371097e-01 3.2557371839700631e+00 -4.2375311543371097e-01 5.3229622360342601e+00 3.1227801394230464e-01 3.2557371839700631e+00 3.1227801394230464e-01 5.9321866192623691e+00  -2.3567617862942942e+00 -8.7122862390829370e-01 2.8702581465438466e+00 -8.7122862390829370e-01 7.4357087858143647e+00 2.1590681166594475e-01 2.8702581465438466e+00 2.1590681166594466e-01 4.6270348234103285e+00  -2.7128079731376680e+00 -8.2719474554976302e-01 2.5212516582675124e+00 -8.2719474554976302e-01 7.9258534850862343e+00 6.4184634786489647e-01 2.5212516582675124e+00 6.4184634786489647e-01 5.7036680048195016e+00  -3.3755319464424063e+00 -2.9894418026556513e-01 5.2041606675544905e-01 -2.9894418026556524e-01 8.7378894527227526e+00 1.1684709854231934e+00 5.2041606675544916e-01 1.1684709854231938e+00 6.3840635663673542e+00  -3.2087844512151138e+00 1.4227890547952948e-01 -1.0194207419695451e+00 1.4227890547952934e-01 9.4840772217504572e+00 1.9268378461985991e+00 -1.0194207419695451e+00 1.9268378461985991e+00 5.8270448999688051e+00  -2.8502391994601557e+00 -4.1717758788156495e-01 -1.4101141961043797e+00 -4.1717758788156495e-01 1.0229716245885331e+01 2.2799097428696946e+00 -1.4101141961043797e+00 2.2799097428696946e+00 4.5589914622339975e+00  -3.0272291900995167e+00 -2.3820551696256606e-01 -1.0122114706561833e+00 -2.3820551696256606e-01 1.0211819119908339e+01 2.5658709357145146e+00 -1.0122114706561824e+00 2.5658709357145146e+00 4.8681568312505190e+00  -3.0010792014613328e+00 1.0008741878986558e+00 -1.3538204908627738e+00 1.0008741878986560e+00 9.8001687435873759e+00 2.2497359388579334e+00 -1.3538204908627738e+00 2.2497359388579330e+00 5.5507075386201086e+00  -1.8174308178814025e+00 1.3865511744580543e+00 -2.9917249110158877e+00 1.3865511744580543e+00 9.6439239345548806e+00 2.3093187114949205e+00 -2.9917249110158877e+00 2.3093187114949205e+00 4.6752872102149130e+00  2.8124199652368448e-01 -5.1445328041057392e-02 5.5441725339296415e+00 -5.1445328041057253e-02 2.3819497764879927e+00 -1.3181606899339644e+00 5.5441725339296415e+00 -1.3181606899339644e+00 7.7921652221538906e+00  4.5419946512352083e-01 6.3811820832558497e-01 4.7231494293971377e+00 6.3811820832558486e-01 2.0738785753791751e+00 -2.9160693933085389e+00 4.7231494293971377e+00 -2.9160693933085389e+00 7.8886510159905363e+00  9.3565268335006890e-01 1.1565066749083457e+00 3.9743560174635464e+00 1.1565066749083457e+00 1.5154237117526399e+00 -3.9045501704138483e+00 3.9743560174635464e+00 -3.9045501704138483e+00 8.1314055974911827e+00  1.8099695081567406e+00 9.4624940101986577e-01 2.4119306970327279e+00 9.4624940101986577e-01 7.7262405427323488e-01 -4.8320347397319621e+00 2.4119306970327279e+00 -4.8320347397319630e+00 8.3202168720924075e+00  2.2435517993942771e+00 6.3273375528686671e-01 1.5001599707567255e+00 6.3273375528686671e-01 3.9515171466898313e-01 -5.3555034559786163e+00 1.5001599707567257e+00 -5.3555034559786163e+00 8.5377074548622023e+00  2.4175011911228768e+00 9.8556892696902335e-02 -4.6359186358939886e-01 9.8556892696902335e-02 3.3185966047218923e-01 -5.5878669888055672e+00 -4.6359186358939891e-01 -5.5878669888055672e+00 8.8754057938017663e+00  2.3744253704657479e+00 -3.5660569347776189e-01 -1.8173580963237104e+00 -3.5660569347776189e-01 5.4572998566750897e-01 -5.5509651144751402e+00 -1.8173580963237104e+00 -5.5509651144751402e+00 7.7761402959331267e+00  1.9766578612742329e+00 -1.0587658370392534e+00 -4.1795239746220867e+00 -1.0587658370392534e+00 1.2812453206516143e+00 -4.0594621881703716e+00 -4.1795239746220867e+00 -4.0594621881703716e+00 8.5821306966535964e+00  9.6619758134598310e-01 -8.7518452075975706e-01 -5.4256692340580814e+00 -8.7518452075975739e-01 1.9399301422663786e+00 -2.4158584555474865e+00 -5.4256692340580814e+00 -2.4158584555474865e+00 9.2496602828330872e+00  2.1412032913208274e+00 7.4733427626315463e-01 6.1435990160891185e-01 7.4733427626315463e-01 -1.4657295657786704e+00 1.6366377683753648e+00 6.1435990160891207e-01 1.6366377683753648e+00 1.1529488241807322e+00  1.8625495576923334e+00 1.5933114426386596e+00 2.6534606263593374e-01 1.5933114426386596e+00 -9.2725174756722961e-01 1.7568458119978565e+00 2.6534606263593374e-01 1.7568458119978565e+00 1.0298968238467177e+00  7.0616822422862879e-01 1.8683010784099727e+00 -3.5667736285205609e-01 1.8683010784099727e+00 -6.7842966115593997e-02 1.8300059382062128e+00 -3.5667736285205603e-01 1.8300059382062128e+00 1.1905238533528533e+00  -1.4487330276185557e-02 2.0293846069645380e+00 -1.0198382253175795e+00 2.0293846069645380e+00 1.4988367883155842e+00 1.6468093539568738e+00 -1.0198382253175795e+00 1.6468093539568738e+00 6.5488317235331894e-01  -8.5848523489060080e-01 1.3068298020272882e+00 -1.4159671357109360e+00 1.3068298020272882e+00 2.4270679429849986e+00 1.4664971530019146e+00 -1.4159671357109358e+00 1.4664971530019146e+00 5.6818102962026573e-01  -1.4122531526458002e+00 4.5159115176390963e-01 -1.6734593752688491e+00 4.5159115176390979e-01 2.6754686013194697e+00 1.0126869190175904e+00 -1.6734593752688491e+00 1.0126869190175900e+00 8.8427871065284736e-01  -1.1716273818777307e+00 -4.8439433601925930e-01 -2.0843516426607631e+00 -4.8439433601925941e-01 2.7863367431572836e+00 6.3888551515933145e-01 -2.0843516426607631e+00 6.3888551515933145e-01 8.4620278665525295e-01  -5.5281456733692769e-01 -1.6547761603231221e+00 -1.7939837654617976e+00 -1.6547761603231221e+00 2.0627905055918774e+00 1.3917193595502730e-03 -1.7939837654617974e+00 1.3917193595502809e-03 4.0776682395956115e-01  6.2029550278748380e-01 -2.2332293011691045e+00 -1.8721794401746439e+00 -2.2332293011691045e+00 5.2349061094202842e-01 6.0697290051538864e-02 -1.8721794401746439e+00 6.0697290051538864e-02 7.7702036960281251e-01  1.3544825900552078e+00 -1.0222297039924206e+00 -1.6639337375076071e+00 -1.0222297039924213e+00 -1.3614154551298223e+00 -6.7833133909494880e-01 -1.6639337375076071e+00 -6.7833133909494869e-01 1.2209950649349925e+00  3.1705647067559495e+00 -1.4548830997129056e+00 -1.2497791686893167e+00 -1.4548830997129059e+00 -1.8582757891198869e+00 -9.4660237264054514e-01 -1.2497791686893167e+00 -9.4660237264054514e-01 1.1289179325221155e+00  5.5412087266843759e+00 -9.0648927808230295e-01 -1.5288006377961709e+00 -9.0648927808230340e-01 -2.3311489833665564e+00 -2.1341496633033410e+00 -1.5288006377961707e+00 -2.1341496633033410e+00 2.9305592478493621e+00  5.5184416855907727e+00 -7.0861585754831535e-01 -1.3680542142521739e+00 -7.0861585754831502e-01 -8.6149073054494463e-01 -3.2771967313041843e+00 -1.3680542142521741e+00 -3.2771967313041843e+00 1.8235981511556894e+00  4.4449027906981025e+00 -1.9178346166912275e-01 -7.3971576371015524e-01 -1.9178346166912275e-01 -8.2420947432557035e-01 -2.8384141314726894e+00 -7.3971576371015535e-01 -2.8384141314726890e+00 5.3082683000167807e-01  3.6804523646111851e+00 -6.7486896730687945e-02 -5.9323486020022709e-01 -6.7486896730688237e-02 -1.8756646818794165e+00 -1.9394421605071024e+00 -5.9323486020022687e-01 -1.9394421605071033e+00 1.1492330907729369e+00  3.2978845158035086e+00 -6.8720360019220372e-01 -9.9046397693421750e-01 -6.8720360019220283e-01 -2.5141233890998906e+00 -1.2304785352560079e+00 -9.9046397693421717e-01 -1.2304785352560079e+00 2.7104288859209946e+00  2.5660466839699767e+00 -7.2983950923025953e-01 -7.9537893362413337e-01 -7.2983950923025942e-01 -2.5958798783944150e+00 -5.6582931408681092e-01 -7.9537893362413337e-01 -5.6582931408681092e-01 2.8576189437494537e+00  1.6855583327782846e+00 -1.0716366018016124e+00 -1.3909257045031384e-01 -1.0716366018016121e+00 -1.9830816888031291e+00 8.6853208702191298e-01 -1.3909257045031387e-01 8.6853208702191298e-01 1.8614002711929574e+00  1.7138635860106877e+00 -1.5381857653364670e+00 -4.2148527990454824e-03 -1.5381857653364670e+00 -1.2292743573657883e+00 2.4603905632322642e+00 -4.2148527990454807e-03 2.4603905632322642e+00 2.6449728423959575e+00  1.9186575370132153e+00 -1.3122848507830198e+00 -1.8650188753480804e-01 -1.3122848507830198e+00 -1.1708977183807923e+00 3.2597219369843833e+00 -1.8650188753480804e-01 3.2597219369843820e+00 3.9159183780338811e+00  6.4617999288586669e-01 1.6180138992565385e-01 -2.1747747844328852e-01 1.6180138992565385e-01 7.2638527048077092e-02 3.6845668925961212e+00 -2.1747747844328852e-01 3.6845668925961212e+00 1.9132591701222248e+00  6.0944223157876720e-01 5.7662138268654718e-02 3.0458676612255747e-01 5.7662138268654718e-02 -9.2165677998112330e-02 3.3785678857401646e+00 3.0458676612255747e-01 3.3785678857401646e+00 1.5080933430081533e+00  7.0705466328327660e-01 -1.6561998135331182e-01 9.7120965183719710e-01 -1.6561998135331182e-01 -1.7114405508500005e-01 3.2315033447166530e+00 9.7120965183719710e-01 3.2315033447166530e+00 1.5138987502131931e+00  8.1363945528524795e-01 -4.2688462328764781e-01 1.4002611270083953e+00 -4.2688462328764781e-01 2.1476761502078123e-02 2.8962549702130187e+00 1.4002611270083953e+00 2.8962549702130187e+00 1.1722494102216263e+00  6.5579390054619280e-01 -3.3493090441770457e-01 1.9177140576583713e+00 -3.3493090441770457e-01 -1.2041623624339051e-02 2.4996715034910344e+00 1.9177140576583713e+00 2.4996715034910344e+00 1.0211205397231342e+00  1.0856147250667476e+00 -2.2393503645293292e-01 1.7761694099831482e+00 -2.2393503645293292e-01 1.9330138793902499e-01 1.8867024841072859e+00 1.7761694099831487e+00 1.8867024841072859e+00 -3.6269694708892380e-01  1.1820629458887915e+00 -3.9116808993128760e-01 2.0658210203154725e+00 -3.9116808993128754e-01 3.1084225747927696e-01 1.1003424973787164e+00 2.0658210203154725e+00 1.1003424973787164e+00 -5.9401183685747827e-01  7.7116461703582073e-01 -7.5019613157330900e-01 2.6853919619036768e+00 -7.5019613157330900e-01 7.4148835242711453e-01 7.8634792686495325e-01 2.6853919619036768e+00 7.8634792686495325e-01 1.8239123907916488e-01  8.4991660843595462e-01 -8.1750811996240269e-01 2.4390902294311441e+00 -8.1750811996240269e-01 1.0976545034573182e+00 3.2160401086501415e-02 2.4390902294311450e+00 3.2160401086501360e-02 -6.6014023445343839e-01  5.7160289986734980e-01 -8.6056927272524664e-01 2.4353845861091097e+00 -8.6056927272524664e-01 1.4798763021954300e+00 -3.6036557056976143e-01 2.4353845861091092e+00 -3.6036557056976137e-01 -7.4469287213740032e-01  -1.1485295211055962e-02 -5.2727676116125199e-01 2.2388458715289827e+00 -5.2727676116125199e-01 1.7218856741417461e+00 -1.0222015705204868e+00 2.2388458715289827e+00 -1.0222015705204868e+00 -3.6065409254276537e-01  -1.6346894569116383e-01 9.7526160106520335e-02 2.1596206026920215e+00 9.7526160106520335e-02 1.5192995828447740e+00 -1.4114434970629994e+00 2.1596206026920215e+00 -1.4114434970629994e+00 2.8035066875671882e-01  3.5945070770968079e-01 1.6415852061796754e-01 1.4168759697766296e+00 1.6415852061796754e-01 1.6049633333304727e+00 -1.5677758210703652e+00 1.4168759697766296e+00 -1.5677758210703652e+00 -8.9142434876057919e-01  4.0886485308535875e-01 -6.8771650664382622e-01 -1.3576954540768857e-01 -6.8771650664382622e-01 1.9524891708433565e+00 -1.9844174089896942e+00 -1.3576954540768857e-01 -1.9844174089896942e+00 -1.5645276406590896e+00  -1.2805817681954898e-01 5.3258173985499879e-01 9.7775431735420371e-01 5.3258173985499879e-01 1.2582650362136962e+00 -1.9340862418157967e+00 9.7775431735420371e-01 -1.9340862418157967e+00 7.3904847482348199e-02  2.2814689084063824e+00 -9.3675854589290841e-01 8.1243128630022532e-01 -9.3675854589290841e-01 -1.8978652611061104e+00 8.6480034511733406e-01 8.1243128630022532e-01 8.6480034511733339e-01 1.5313862385682451e+00  2.2016412641771597e+00 -9.5036157444829972e-01 1.0883111128312681e+00 -9.5036157444829972e-01 -2.1141172487514259e+00 1.3217691277416738e-01 1.0883111128312681e+00 1.3217691277416738e-01 1.7267360721175276e+00  2.9073704044994466e+00 -1.4644588021534959e+00 1.1413509577051211e+00 -1.4644588021534963e+00 -2.3673288743684395e+00 -5.4337675691088598e-02 1.1413509577051215e+00 -5.4337675691088598e-02 2.5187722730243243e+00  3.7973901534227479e+00 -1.5093931919284842e+00 1.2369073837958175e+00 -1.5093931919284840e+00 -2.5707692748051727e+00 3.7651105265676388e-01 1.2369073837958173e+00 3.7651105265676388e-01 3.1359788105128041e+00  3.4896194982588771e+00 -1.2684275670747158e+00 1.2028843059521175e+00 -1.2684275670747158e+00 -2.5521190918816328e+00 6.6016055442650634e-01 1.2028843059521175e+00 6.6016055442650623e-01 3.1149123828354468e+00  3.1496090535005457e+00 -1.0027638110785844e+00 9.4769574113036259e-01 -1.0027638110785846e+00 -2.6716312218681662e+00 5.0108812501086031e-01 9.4769574113036281e-01 5.0108812501086031e-01 3.1554440326002022e+00  2.5250547460332129e+00 -8.2226932328713731e-01 7.7705089676273575e-01 -8.2226932328713731e-01 -2.6535270564472402e+00 2.3834759613659134e-01 7.7705089676273575e-01 2.3834759613659134e-01 3.3273437299754209e+00  1.8047189564279820e+00 -7.7337419459765566e-01 1.3643720637481414e+00 -7.7337419459765566e-01 -2.4412831036611271e+00 -1.8248027171325115e-01 1.3643720637481411e+00 -1.8248027171325115e-01 3.2113136180168849e+00  1.0359386638059367e+00 -5.2811997938427313e-01 1.4738401365660949e+00 -5.2811997938427324e-01 -1.1853022828395241e+00 -1.5883826061708101e-01 1.4738401365660949e+00 -1.5883826061708098e-01 5.0885292474853172e-01  3.8766351915478516e+00 1.0913584140893176e+00 -7.0139925410710069e-01 1.0913584140893173e+00 -2.2390674262082029e+00 -1.5754031891193472e+00 -7.0139925410710069e-01 -1.5754031891193472e+00 1.5548653659615121e+00  3.4066405735144571e+00 2.7865466182622156e+00 -2.6814835443999807e-01 2.7865466182622161e+00 -1.3164311867540630e+00 -1.7081681606621395e+00 -2.6814835443999807e-01 -1.7081681606621395e+00 1.7202167251516656e+00  1.5758592490484482e+00 3.3130213271571698e+00 3.1965335038366055e-01 3.3130213271571689e+00 -9.4220266269597536e-02 -1.6198086312434643e+00 3.1965335038366033e-01 -1.6198086312434643e+00 2.1156509703420214e+00  -3.4405970031439265e-01 3.2560811129612053e+00 6.9358146304535440e-01 3.2560811129612053e+00 1.9387506387106852e+00 -1.5581359939601485e+00 6.9358146304535429e-01 -1.5581359939601485e+00 2.0578469917190891e+00  -1.6677912929336998e+00 2.0357082232145385e+00 1.0959621310311674e+00 2.0357082232145385e+00 2.5640877974993899e+00 -1.4674205160971285e+00 1.0959621310311674e+00 -1.4674205160971285e+00 2.2590052553982143e+00  -2.0089457048235895e+00 7.5817382381757503e-01 1.5578831718398238e+00 7.5817382381757503e-01 3.1847024043427878e+00 -1.0693828772833576e+00 1.5578831718398238e+00 -1.0693828772833573e+00 1.7831754481704776e+00  -1.6258709230347950e+00 -7.9898415850899496e-01 1.8739716346657405e+00 -7.9898415850899485e-01 2.5791754494617649e+00 -6.1549827157779791e-01 1.8739716346657405e+00 -6.1549827157779791e-01 1.3142628493797750e+00  -1.5653968470448512e+00 -1.2160590768425046e+00 1.6208066692302183e+00 -1.2160590768425048e+00 1.8952154884118073e+00 -4.7523941214351417e-01 1.6208066692302183e+00 -4.75239412