<?xml version="1.0"?>
<VTKFile type="UnstructuredGrid"  version="0.1"  >
<UnstructuredGrid>
<Piece  NumberOfPoints="1268" NumberOfCells="4847">
<Points>
<DataArray  type="Float64"  NumberOfComponents="3"  format="ascii">1.994716987487452 0.01317707561264319 -1.202466945460223e-11  1.374072606111497 -0.08614134488653273 -5.388997575085332  -1.285941478930618 0.1916557790035214 -5.691288663606836  -1.59032616235459 -0.4515196446136259 1.626303258728257e-17  0.4950030257755884 2.521650519233041 -5.495391852657774  -0.4107718940653654 -2.429115409112172 -5.58531208084276  -0.9314707163843408 -3.006923447963563 4.87890977618477e-17  1.161824811771535 2.948440156756841 -3.391384395534658e-14  2.146749234505421 0.002696741478414759 -0.5615078450779066  2.330988047973839 -0.000873250973709995 -1.113141311680313  2.540713632977715 -0.1384292375506191 -1.637427654548237  2.645241452520652 -0.2872312815961211 -2.18637082393926  2.504842461151312 -0.2752146673621067 -2.746850782899552  2.287876352721185 -0.2088259978706829 -3.283011632728322  2.137771360922677 -0.2093380261300688 -3.844996501809416  1.970142554575494 -0.2193701374385486 -4.401638277082749  1.701580801829277 -0.1696632515169769 -4.915066532844666  1.398049690886424 0.4419377546899956 -5.387643705321969  1.183972204621215 0.9208338616597355 -5.413149504812257  0.7621482426349403 1.234356207118232 -5.461782499987256  0.2539805730796886 1.370727420898931 -5.519751404145364  -0.2689415860383004 1.319053689498898 -5.578906487138381  -0.7357170559581984 1.076180709179107 -5.631191713357971  -1.086003096318238 0.6812820615514149 -5.669884670156524  -1.65706961757681 -0.5275128747266272 -0.6240725009925172  -1.829082870387909 -0.8347372240299333 -1.153553189134448  -2.030635262011336 -1.097965926806997 -1.693320688638939  -2.148557703924963 -0.9683820133813712 -2.295450526931833  -2.119047321408695 -0.7521727279271558 -2.890676896601294  -1.972500555455803 -0.7106310836492745 -3.509380855831461  -1.885028119342598 -0.4902108162504233 -4.093718100793141  -1.832050776792238 -0.1313823297003599 -4.617858136599065  -1.636180550340053 0.1151199882480144 -5.165527944859976  -1.540434086810702 0.1014447694855235 -7.644826989049428e-17  -1.339902801239663 0.6191128040412099 2.218327606354497e-17  -0.9949589579071262 1.053322092476122 2.12059320661159e-17  -0.5243975458638882 1.346285776146202 7.754217898549941e-16  0.01399251627036286 1.481823287560149 3.252316763596149e-17  0.5696211504784076 1.47677978548424 -7.207855520904863e-17  1.105448032340458 1.331487337928338 1.951563910473908e-16  1.561367740818086 1.018090979386763 -2.179459114756194e-16  1.860006992193919 0.551530302300456 1.369433074745588e-16  -0.152869286718376 2.506583809965366 -5.568804938302105  -0.7781210310064858 2.335338381675429 -5.639249366957451  -1.340550096787874 2.011723800088065 -5.702178028336585  -1.803922993566052 1.555830170950866 -5.753534898075912  -2.144678763029901 1.000979069722826 -5.790734833138769  -2.346903237737564 0.3811866585909049 -5.812061421922149  -2.406990243842066 -0.2684488461825228 -5.817196438260218  -2.318433628103212 -0.9144163570965761 -5.805488779558074  -2.059391262210163 -1.511004864267824 -5.774580158166454  -1.615755841275718 -1.983465489741105 -5.72306417450185  -1.043145925381342 -2.287058241276404 -5.657361969815248  -0.6986882361605687 -2.420627649803484 -5.024556445072709  -0.8272574030199392 -2.685291244074475 -4.476216325063944  -0.8113210073272845 -3.118860027310894 -4.01596683617901  -0.7618552434953355 -3.481598098596065 -3.504026669625047  -0.7509882165597778 -3.609083979854663 -2.886473298216772  -0.7986167670519319 -3.732483084086931 -2.268445488219849  -0.8276969497603353 -3.810997815301134 -1.64593496945388  -0.7425506523451623 -3.557242155569485 -1.078322423839125  -0.7147449622328144 -3.21189056194362 -0.5511080601316157  -1.482234509376526 -2.778582553401298 -5.854479658363816e-16  -1.970737176894139 -2.437284655419533 2.764697292186607e-16  -2.362818572203899 -1.988727212877528 2.439101268600111e-16  -2.642390785384022 -1.462244173776716 5.051059276813266e-16  -2.812149102113852 -0.89052423419162 2.276851973687203e-16  -2.877946727920729 -0.2976446157883296 -1.219909928720168e-16  -2.842947107925845 0.2978601752284433 4.065446096494693e-17  -2.70313036896374 0.8776122116387211 -5.041496169361013e-16  -2.452324348076021 1.418519584933707 4.379274460317988e-16  -2.098265626135573 1.898294456130726 1.951060033519619e-16  -1.658391347368763 2.301023318502569 -1.789574489620802e-16  -1.154148079923361 2.619757341302747 -2.081203863085907e-15  -0.6042202207747882 2.851073703499478 -3.577841418755692e-16  -0.02416138323675775 2.990516581461941 4.065982498622179e-16  0.5710641261211448 3.028216945076794 -1.46882551317968e-16  0.6414151130412097 2.696325287154043 -4.983333021490838  0.771852374565919 2.778456367279237 -4.445188759107248  0.8805845204306011 2.73078881179073 -3.897720120696569  0.9481597620953167 2.69798349057175 -3.343104559074628  0.9815370707090804 2.778214865778854 -2.789250505759619  1.013475345489448 2.861817704396183 -2.235671116027784  1.055849759321274 2.898356228459238 -1.677594140621302  1.093646323460014 2.92793989028903 -1.118725590781912  1.124098871622056 2.957526991478201 -0.5594169689370629  0.2477015793419729 -2.415655802610486 -5.510682951113449  0.8844491790088972 -2.245867158009595 -5.438931443942415  1.464891069119211 -1.932330028996181 -5.373934600293736  1.955087092649627 -1.489613175355717 -5.319502697776375  2.318355026965356 -0.937054784961175 -5.279744576064058  2.524994411863564 -0.307899182343253 -5.257941630215678  2.574632820450045 0.3531084349228537 -5.254020561031156  2.465743861849647 1.006614152640354 -5.268052816559671  2.183897076015212 1.604484044160622 -5.301550147358176  1.722560240631265 2.07491696755195 -5.35506775502591  1.13806318635062 2.378906583716481 -5.422118662603529  1.742182153284979 2.73179858498085 5.854691697147836e-16  2.262480931380501 2.395264875892136 -2.601681534737615e-16  2.698000706832733 1.954727370266727 -3.903113804560263e-16  3.021530388777258 1.426473918441798 1.707421408502106e-16  3.223363606607101 0.8405687193648443 -2.844806418042028e-16  3.305434793487241 0.2261994274297442 -4.472186606099012e-16  3.269241566985055 -0.3926051469820059 3.171555149681837e-16  3.113478077610213 -0.9924495549400153 3.510830505762065e-16  2.840400132149515 -1.548806515270482 -1.707368614952523e-16  2.466120284856568 -2.042983582774378 9.732831365154574e-17  2.008125599488538 -2.460814027017948 -3.577575055983979e-16  1.482521285196868 -2.789563899556613 -4.886146623064541e-17  0.9057866143556688 -3.01678997208197 -2.439392613813594e-16  0.2964958724913082 -3.130681163554852 3.414395345104792e-16  -0.32338307292875 -3.126978161260848 2.926910878106614e-16  -1.29067345658392 -0.3506098753383553 -5.690421630247788  -1.068897680254163 -0.8451623229646739 -5.663999894259847  -0.6782440885714781 -1.219621806060448 -5.6187489875115  -0.168757542531344 -1.390394566692369 -5.560546895724229  0.3611301401510615 -1.294122251639114 -5.500717901478111  0.8191548613516448 -1.005201308695582 -5.449538098373106  1.16817203978903 -0.5892762115769014 -5.411042670828763  1.960898302630318 -0.551652302616722 -8.131516293641286e-17  1.751009740180289 -1.077278642631261 7.445724005953314e-16  1.394016468000002 -1.516729095803803 1.136104663605282e-15  0.9227767039454898 -1.830301465573364 3.434443593283319e-16  0.3780412068884804 -1.984007749105097 8.617772484356591e-16  -0.1885780664025548 -1.977994130030172 2.357202029695971e-16  -0.7327557451871473 -1.821291124380143 1.942410916395698e-17  -1.191068596016128 -1.491774666596192 2.975009434367945e-16  -1.480405544894888 -1.006855825633415 6.954512630084263e-16  -1.812414118534285 0.2561131097252937 -2.664867827914479  2.421751940242729 0.6298287624476981 -1.933377861698098  0.7556418177061754 1.42269463362527 -4.617654324361507  0.003134751711410342 1.574821943356493 -0.9318675177876981  1.015098001669947 1.51699057942374 -0.9441494884276413  0.6193243625380082 1.764115149411371 -1.862230514405671  -0.4757031201037318 1.549728101933577 -1.958273018773558  0.1126459993007786 1.698838152590054 -2.957602797129454  -0.3405660022430232 1.569615851499001 -4.678135257405353  1.818199099779932 0.7365610114574719 -3.763003518505052  -0.9541815370276669 1.23451227632913 -2.875526912859068  -1.269464226480212 1.016489154450913 -4.672047638709048  1.301562892980348 1.557566760682666 -2.802482532053872  -0.7813756340336595 1.414221906310649 -3.725761628685261  -1.58370798409762 0.5643609111372817 -3.581008460136619  -0.988817348255397 1.158392548936659 -1.014254585170146  -1.607700527190565 0.2800106654898483 -1.030081240453645  -1.388203055800784 0.7951310659851955 -1.943712885648593  0.8261955720421881 1.570157055202129 -3.620947225245673  1.681455131778566 1.410849015379531 -1.876189895849114  1.878739160554727 0.943024132521903 -0.9866418074548234  2.103426639579445 1.000735947836943 -2.593434794762663  1.62623803052506 0.6468498306152269 -4.727220189271843  -1.882943490361709 -0.1546739965127431 -1.761716647663214  0.05868355051519467 1.656538949473053 -3.863342338366238  2.465845305360337 0.2632819454094029 -2.663569745038379  1.994842599423799 0.5019775153043848 -0.4779055074204815  2.1671824130763 0.4980244878585698 -1.027636182799239  1.710213566460811 0.9718796190568162 -0.4957578884333736  1.845584590132108 0.2253887364997403 -4.583879812097906  1.579035044615276 0.2924902970866011 -5.101748935835201  1.409777182251665 0.7868327264427526 -5.07202467441607  -1.039178737375989 1.089168173550246 -5.170746090958521  -1.377687418630729 0.6683636420802941 -5.233117919580046  -1.641402128985454 0.4875654733502939 -4.648722230221863  -1.765467255797776 -0.2695484060062747 -1.079683539430899  -1.617858736076732 -0.08318463488274264 -0.5123563299218489  -1.474019211051276 0.4496529111656123 -0.5150171376928306  2.417677350191343 0.3274903893149403 -1.506992657970159 
[...]
<PointData  Tensors="stress"> 
<DataArray  type="Float64"  Name="stress"  NumberOfComponents="9" format="ascii">3.6279387556374820e-01 -1.9840075895315462e-01 -4.8599184996021698e+00 -1.9840075895315462e-01 1.5403257952559060e+00 -4.2762135965668702e-01 -4.8599184996021698e+00 -4.2762135965668702e-01 4.9028660709161169e+00  -1.7207680968916539e+00 8.3004269579558532e-01 2.6608407703434711e+00 8.3004269579558532e-01 8.1590522171617668e+00 -1.5313597016620035e+00 2.6608407703434716e+00 -1.5313597016620040e+00 1.9297188384244117e+00  -9.8846659045133578e-01 1.3069486570044884e+00 -3.1346964427142487e+00 1.3069486570044886e+00 7.9739441941810520e+00 1.6799748298075050e+00 -3.1346964427142487e+00 1.6799748298075050e+00 1.6438227813453310e+00  3.9056257245024616e-02 -6.9519219421985667e-01 4.5012537523256473e+00 -6.9519219421985667e-01 1.4164202113017119e+00 -7.6478369808376745e-01 4.5012537523256473e+00 -7.6478369808376745e-01 5.3368708808924445e+00  1.9021739818121444e+00 -1.7006288026540434e-01 1.0053692165979660e+00 -1.7006288026540439e-01 -1.3926351364035388e+00 8.9277376706966249e-01 1.0053692165979660e+00 8.9277376706966249e-01 6.1169404667360905e-01  3.4704400765765224e+00 -1.1736062234677834e-01 -9.7140693135118061e-01 -1.1736062234677830e-01 -2.2092812753720348e+00 -6.4441536446794967e-01 -9.7140693135118039e-01 -6.4441536446794967e-01 8.5436145923219631e-01  5.1775877765612066e-01 3.5491481429501281e-01 -1.0412432059095866e+00 3.5491481429501281e-01 3.1442440881447077e-02 2.9590974050913066e+00 -1.0412432059095866e+00 2.9590974050913066e+00 1.4759480364685738e+00  2.3721173126223005e-01 5.4947843832518484e-01 1.0478293344094129e+00 5.4947843832518484e-01 1.0004781394941200e+00 -1.2526963232121919e+00 1.0478293344094129e+00 -1.2526963232121919e+00 -5.8121877306892455e-01  -2.2848479684217526e+00 -7.6529077924142452e-01 -2.6601208411919579e+00 -7.6529077924142463e-01 4.4933431884163655e+00 -1.4196785140558046e+00 -2.6601208411919579e+00 -1.4196785140558046e+00 4.1816094859090915e+00  -2.5981226488630620e+00 -9.9083653064246746e-01 -2.1905118993820492e+00 -9.9083653064246746e-01 6.0381242643689781e+00 -1.1874268222310116e+00 -2.1905118993820492e+00 -1.1874268222310116e+00 3.8905824794971586e+00  -3.0356155949836707e+00 -1.8440922679342953e-01 -1.9112071013002427e+00 -1.8440922679342955e-01 6.6887898725258612e+00 -6.7484110268520614e-01 -1.9112071013002427e+00 -6.7484110268520625e-01 4.3846004532458593e+00  -3.3856103174188101e+00 4.8988121133719525e-01 4.0854403977416576e-02 4.8988121133719525e-01 6.5763056729882869e+00 -1.0599018904493169e+00 4.0854403977416576e-02 -1.0599018904493169e+00 5.2441515351575143e+00  -2.6109130325585270e+00 -8.7334334871325137e-02 2.2579193430256685e+00 -8.7334334871325331e-02 7.7065752474383773e+00 -1.3597217421287799e+00 2.2579193430256685e+00 -1.3597217421287804e+00 3.6487875455859489e+00  -2.4533899115470876e+00 -8.6938834689215916e-01 1.9975156502882998e+00 -8.6938834689215938e-01 8.5383303232136623e+00 -4.8241532586881858e-01 1.9975156502882998e+00 -4.8241532586881858e-01 2.4760669566524229e+00  -2.6707047535100252e+00 -3.2099297450403391e-01 1.7601775104771646e+00 -3.2099297450403380e-01 8.7856933539440725e+00 -3.0205470141736435e-01 1.7601775104771646e+00 -3.0205470141736435e-01 2.5971387185112134e+00  -2.3541284948981440e+00 9.0707947860970320e-02 2.3154300445143972e+00 9.0707947860970195e-02 8.3514226831358442e+00 -8.0343159321924695e-01 2.3154300445143967e+00 -8.0343159321924729e-01 2.4937171979317605e+00  -1.5108306879045836e+00 5.8009878280658989e-01 3.0440370688250180e+00 5.8009878280659000e-01 8.2004244966933815e+00 -1.0609115369203255e+00 3.0440370688250180e+00 -1.0609115369203255e+00 2.0343510827812015e+00  -1.1753486250422260e+00 -2.4551703785766055e+00 3.2606711904659513e+00 -2.4551703785766055e+00 6.9075071933364640e+00 -3.1629837867639826e-01 3.2606711904659513e+00 -3.1629837867639821e-01 2.5721208401467042e+00  1.8132458268151650e+00 -4.9129634384186538e+00 2.5976124492336363e+00 -4.9129634384186538e+00 3.6559154629039261e+00 9.8671474043893126e-01 2.5976124492336363e+00 9.8671474043893126e-01 2.8782089045895169e+00  5.3222124996811839e+00 -3.8390288912112900e+00 1.9839235056187368e+00 -3.8390288912112900e+00 -5.1366636418992118e-01 1.9891931322944281e+00 1.9839235056187368e+00 1.9891931322944281e+00 3.2311511065557701e+00  6.8497529120938925e+00 -8.7403425421241121e-01 1.2401519081986494e+00 -8.7403425421241099e-01 -2.0133566166133265e+00 2.9593158032816613e+00 1.2401519081986494e+00 2.9593158032816627e+00 3.3585711354453536e+00  6.3551912020246366e+00 2.1551185421343924e+00 -1.2485371076220161e-01 2.1551185421343924e+00 -1.1228421013070355e+00 3.5820169873165759e+00 -1.2485371076220167e-01 3.5820169873165755e+00 3.2035650375852325e+00  3.7433726922636965e+00 4.1169125503504729e+00 -1.2314088633349161e+00 4.1169125503504729e+00 1.7835883496827294e+00 3.4056134135934117e+00 -1.2314088633349161e+00 3.4056134135934117e+00 2.5923155795840866e+00  7.9004862350863470e-01 3.7552905198187108e+00 -2.2960215804081607e+00 3.7552905198187108e+00 5.2524369728220863e+00 2.8208896656401379e+00 -2.2960215804081607e+00 2.8208896656401379e+00 2.2647718257721041e+00  -2.6524340641071738e+00 -1.9380165646558345e-01 2.3847783516157013e+00 -1.9380165646558345e-01 3.8857114510278907e+00 2.5636485676983933e-01 2.3847783516157013e+00 2.5636485676983939e-01 4.3734269399616252e+00  -2.5823267993866406e+00 -5.9333935469863852e-01 2.1944489123488413e+00 -5.9333935469863852e-01 5.6776574196156293e+00 1.5687649925529887e-01 2.1944489123488413e+00 1.5687649925529890e-01 3.2502060242957964e+00  -2.9040386944347896e+00 -6.8700201134504146e-01 1.9152142516593864e+00 -6.8700201134504146e-01 6.1090249716987257e+00 5.5650642599552147e-01 1.9152142516593864e+00 5.5650642599552158e-01 4.2346429632636653e+00  -3.4093568232118541e+00 -3.8049947605803108e-01 3.8702993242046807e-01 -3.8049947605803097e-01 6.8142970529089171e+00 1.0086898189973617e+00 3.8702993242046824e-01 1.0086898189973617e+00 4.7785456518940839e+00  -3.2522993557520237e+00 1.4945703961706134e-02 -8.7577164984329958e-01 1.4945703961706067e-02 7.4727450790604362e+00 1.6821882015542891e+00 -8.7577164984329958e-01 1.6821882015542895e+00 4.3239643503052889e+00  -2.8968906829818875e+00 -4.9448169642953571e-01 -1.2049948174392580e+00 -4.9448169642953554e-01 8.1359394324424219e+00 1.9441795087496956e+00 -1.2049948174392580e+00 1.9441795087496954e+00 3.2472258134500169e+00  -3.0101263423536739e+00 -3.0770622178768242e-01 -9.4605725271561936e-01 -3.0770622178768237e-01 8.0946900131014452e+00 2.1876846408676056e+00 -9.4605725271561925e-01 2.1876846408676061e+00 3.4735244702872414e+00  -3.0503793288250596e+00 7.5315308593719565e-01 -1.2553083329498764e+00 7.5315308593719554e-01 7.7940651251052540e+00 1.9032985775254616e+00 -1.2553083329498764e+00 1.9032985775254616e+00 4.0538817275454475e+00  -2.1287013210610670e+00 1.1040462313287225e+00 -2.5279774451508845e+00 1.1040462313287225e+00 7.6738779596802686e+00 1.9971146674740292e+00 -2.5279774451508845e+00 1.9971146674740292e+00 3.3349189057023723e+00  -4.9734941396302657e-01 2.6271572919310527e-02 4.3088068429029978e+00 2.6271572919310603e-02 1.6781508098947933e+00 -1.2493917919022770e+00 4.3088068429029978e+00 -1.2493917919022770e+00 5.8835057217930071e+00  -1.8397404241127838e-01 6.2816311935826563e-01 3.6422623449882132e+00 6.2816311935826552e-01 1.2891160893146976e+00 -2.4912055587830548e+00 3.6422623449882132e+00 -2.4912055587830548e+00 5.8334309218170244e+00  2.4585922317583153e-01 1.2310575437011322e+00 2.9912209557742493e+00 1.2310575437011322e+00 7.7260409889373027e-01 -3.1705164546657829e+00 2.9912209557742493e+00 -3.1705164546657829e+00 6.1711562460058831e+00  1.1025787139588563e+00 9.0910853167526451e-01 1.7042432403033243e+00 9.0910853167526451e-01 1.1602013373034339e-01 -3.9554789928034078e+00 1.7042432403033243e+00 -3.9554789928034078e+00 6.1311502127193540e+00  1.5356541509401247e+00 6.4435148525961972e-01 9.9976656644616191e-01 6.4435148525961961e-01 -3.6845442334000184e-01 -4.2636680624544523e+00 9.9976656644616202e-01 -4.2636680624544523e+00 6.4900323878934021e+00  1.6758884389496054e+00 4.2135640155400202e-02 -6.2318835748095702e-01 4.2135640155400209e-02 -3.6920331846735299e-01 -4.4233489078059387e+00 -6.2318835748095702e-01 -4.4233489078059387e+00 6.6559369546706888e+00  1.6482382802125917e+00 -4.1693126148947990e-01 -1.5914393203758037e+00 -4.1693126148947990e-01 -3.0890256229566632e-01 -4.2683180062819730e+00 -1.5914393203758037e+00 -4.2683180062819730e+00 5.8038359795181576e+00  1.1875360771952723e+00 -1.0239671016492411e+00 -3.6180313414206147e+00 -1.0239671016492411e+00 6.0578360264679565e-01 -3.0280392616069620e+00 -3.6180313414206147e+00 -3.0280392616069620e+00 6.2439270500613091e+00  2.4148582784749295e-01 -8.5025123412222492e-01 -4.5586700692249709e+00 -8.5025123412222492e-01 1.1796003566836102e+00 -1.5782605387804562e+00 -4.5586700692249709e+00 -1.5782605387804562e+00 6.8618348582004138e+00  1.6430936626094808e+00 6.5031272606870016e-01 6.3433059953543702e-01 6.5031272606870028e-01 -1.1961714524458922e+00 1.3255589505393004e+00 6.3433059953543702e-01 1.3255589505393002e+00 7.1363114310767573e-01  1.4882894991783695e+00 1.3167591261672515e+00 3.6380557914102257e-01 1.3167591261672515e+00 -8.9770081313536731e-01 1.4200724594491279e+00 3.6380557914102257e-01 1.4200724594491279e+00 7.3513397707628447e-01  4.1984117800971954e-01 1.5097269754203924e+00 -9.7849456794959488e-02 1.5097269754203924e+00 -1.4412266588631423e-01 1.5013173218522098e+00 -9.7849456794959461e-02 1.5013173218522098e+00 8.3862389084301714e-01  -2.1177835408833387e-01 1.6503691340252820e+00 -8.0133754212291408e-01 1.6503691340252817e+00 1.2309676330796411e+00 1.3458150510610902e+00 -8.0133754212291408e-01 1.3458150510610902e+00 3.6890203047173387e-01  -8.8709483314480164e-01 1.0634031371823658e+00 -1.1036000837237148e+00 1.0634031371823658e+00 2.0390367031299350e+00 1.2026172416148473e+00 -1.1036000837237148e+00 1.2026172416148471e+00 2.9019094468564421e-01  -1.2841381317586480e+00 3.4296075879173304e-01 -1.3174809110072430e+00 3.4296075879173282e-01 2.1649728841364371e+00 8.5802508831761515e-01 -1.3174809110072425e+00 8.5802508831761548e-01 5.3318360984206248e-01  -1.1018607542256733e+00 -4.2327969373090202e-01 -1.6248387505318931e+00 -4.2327969373090185e-01 2.1301841070048448e+00 5.2913140821831184e-01 -1.6248387505318931e+00 5.2913140821831184e-01 5.1390233674785424e-01  -5.7628391608262552e-01 -1.4019319189418618e+00 -1.3944968058388254e+00 -1.4019319189418618e+00 1.6824376549201190e+00 3.1152464106463523e-02 -1.3944968058388252e+00 3.1152464106463447e-02 1.6122071908630109e-01  3.1287185189965527e-01 -1.7850814545613412e+00 -1.5491128927417557e+00 -1.7850814545613418e+00 3.7754328828264422e-01 2.2248924830145300e-01 -1.5491128927417557e+00 2.2248924830145303e-01 5.5895562184041059e-01  1.0186258649569024e+00 -7.1690544120857191e-01 -1.4850115405365174e+00 -7.1690544120857169e-01 -1.2159350781906575e+00 -3.3333511177505470e-01 -1.4850115405365174e+00 -3.3333511177505487e-01 8.7350249130341950e-01  2.5974211008501622e+00 -1.0399493827203254e+00 -1.2046627982086715e+00 -1.0399493827203254e+00 -1.6550872305608264e+00 -7.8782350273368085e-01 -1.2046627982086715e+00 -7.8782350273368096e-01 7.5608957385967546e-01  4.6107911882992196e+00 -7.5659419526771332e-01 -1.3537527220378553e+00 -7.5659419526771332e-01 -2.3028416933503584e+00 -1.7833039593460311e+00 -1.3537527220378553e+00 -1.7833039593460311e+00 2.2707182867564186e+00  4.5933685516036729e+00 -4.9939559474387479e-01 -1.2034974337309678e+00 -4.9939559474387479e-01 -1.0234287527925399e+00 -2.8509600669035442e+00 -1.2034974337309678e+00 -2.8509600669035442e+00 1.2831341154982063e+00  3.5835270857885901e+00 -9.7829429014817115e-02 -7.0560320297290313e-01 -9.7829429014817115e-02 -8.9329613397974406e-01 -2.3648860399629501e+00 -7.0560320297290313e-01 -2.3648860399629492e+00 2.0942592423010992e-01  2.9576383833107363e+00 6.9817166521959878e-02 -5.3418810366485658e-01 6.9817166521959823e-02 -1.6630164833927470e+00 -1.5761713401090505e+00 -5.3418810366485669e-01 -1.5761713401090505e+00 6.4314394119846408e-01  2.6408213087731376e+00 -5.2066725926290003e-01 -9.4793676896431189e-01 -5.2066725926290003e-01 -2.2501135638168530e+00 -9.9426360871297226e-01 -9.4793676896431189e-01 -9.9426360871297226e-01 1.9945846975262997e+00  2.0505643187898777e+00 -5.7047550948905967e-01 -7.5051363987624031e-01 -5.7047550948905967e-01 -2.2541186835885516e+00 -5.1761490730420656e-01 -7.5051363987624031e-01 -5.1761490730420656e-01 2.0369034653079185e+00  1.2621992826515356e+00 -8.2531773382622164e-01 -1.4512365149625753e-01 -8.2531773382622164e-01 -1.6351719967220182e+00 6.5152504153606483e-01 -1.4512365149625753e-01 6.5152504153606472e-01 1.1808840953508755e+00  1.2256018131717581e+00 -1.3952218212691667e+00 -6.8685866239451528e-03 -1.3952218212691667e+00 -1.0021713606584333e+00 2.0922841552872211e+00 -6.8685866239451502e-03 2.0922841552872211e+00 1.8643989672721124e+00  1.4733305762916529e+00 -1.0647534232080824e+00 -3.4869481615304543e-01 -1.0647534232080824e+00 -1.2218072951692616e+00 2.7117905678414242e+00 -3.4869481615304543e-01 2.7117905678414242e+00 2.9398641951712388e+00  5.5805560966959011e-01 2.4422806513066869e-01 -4.8347188866246349e-01 2.4422806513066869e-01 -1.7452351794742268e-01 2.8022249314034311e+00 -4.8347188866246349e-01 2.8022249314034311e+00 1.0661858892682827e+00  5.7176447184486157e-01 8.7681985795389356e-02 -6.9121453793883333e-02 8.7681985795389356e-02 -2.8603312750139187e-01 2.5762876635883711e+00 -6.9121453793883333e-02 2.5762876635883711e+00 7.4162042569411146e-01  6.8188173541808805e-01 -1.8291992966588566e-01 4.9522068281038339e-01 -1.8291992966588566e-01 -3.6454462964491430e-01 2.5012830567765021e+00 4.9522068281038339e-01 2.5012830567765021e+00 7.4344646328576414e-01  7.9542017271373266e-01 -4.2726291655462001e-01 8.5545026651995681e-01 -4.2726291655462006e-01 -2.3112680580959571e-01 2.2248691867714747e+00 8.5545026651995681e-01 2.2248691867714747e+00 4.9287399879138322e-01  6.2396411483918990e-01 -3.7631101256311106e-01 1.2788426176800514e+00 -3.7631101256311106e-01 -1.7594598325693925e-01 2.0192862631015576e+00 1.2788426176800514e+00 2.0192862631015576e+00 4.1989449892753244e-01  1.0094988572487937e+00 -2.4973277149929241e-01 1.0797990521314194e+00 -2.4973277149929241e-01 9.1361995779777896e-02 1.5055690754285063e+00 1.0797990521314194e+00 1.5055690754285063e+00 -7.0123833034984295e-01  1.0987657267081674e+00 -3.7769627798318789e-01 1.3399489644729785e+00 -3.7769627798318789e-01 1.9097887183426712e-01 8.8022870294736633e-01 1.3399489644729785e+00 8.8022870294736633e-01 -8.6482307644787471e-01  5.7104271705017218e-01 -7.4152029455857360e-01 1.8638665894101640e+00 -7.4152029455857360e-01 6.0100478896129772e-01 7.7261584928158344e-01 1.8638665894101640e+00 7.7261584928158344e-01 -2.0771504587693909e-01  6.2368847070982270e-01 -7.8796334238147681e-01 1.6989051496827416e+00 -7.8796334238147681e-01 9.6856095936479258e-01 1.7114254103661186e-01 1.6989051496827416e+00 1.7114254103661186e-01 -8.3621720090070439e-01  3.5874599736380658e-01 -7.8188826287216717e-01 1.7640419417293975e+00 -7.8188826287216717e-01 1.3238861656795824e+00 -9.2711876422499548e-02 1.7640419417293975e+00 -9.2711876422499548e-02 -8.5426924993124731e-01  -1.4699579738594712e-01 -4.4919342995181122e-01 1.6278160814774800e+00 -4.4919342995181111e-01 1.5013740020955118e+00 -5.6621149122088776e-01 1.6278160814774800e+00 -5.6621149122088776e-01 -5.6545290597994402e-01  -2.8524446011281263e-01 1.1460138143340227e-01 1.6209754668058172e+00 1.1460138143340227e-01 1.2928345752691754e+00 -8.3175975540145908e-01 1.6209754668058172e+00 -8.3175975540145908e-01 -1.0976851691770623e-01  1.8954551572629022e-01 1.7293453152179331e-01 1.0338481310598922e+00 1.7293453152179331e-01 1.3780041900576234e+00 -9.6086305074566691e-01 1.0338481310598919e+00 -9.6086305074566691e-01 -1.0121154430171806e+00  3.2882179848400744e-01 -6.3699099698569972e-01 -2.5082408415051333e-01 -6.3699099698569972e-01 1.5934057702685707e+00 -1.3950970931952000e+00 -2.5082408415051338e-01 -1.3950970931952000e+00 -1.4711309304138129e+00  -1.7917240093127162e-01 5.2562200163175110e-01 7.8406143031775211e-01 5.2562200163175110e-01 1.0368638880185694e+00 -1.2620140691100810e+00 7.8406143031775222e-01 -1.2620140691100810e+00 -2.0079453799221592e-01  1.6875811852303708e+00 -7.0844461131561287e-01 8.7935273635259725e-01 -7.0844461131561287e-01 -1.5833463488485855e+00 5.8946289978407163e-01 8.7935273635259725e-01 5.8946289978407163e-01 1.0795912415705722e+00  1.7292594550768836e+00 -7.7455017556906047e-01 9.8123529822223943e-01 -7.7455017556906047e-01 -1.7759662021738787e+00 2.5982131038153916e-02 9.8123529822223943e-01 2.5982131038153916e-02 1.1921616769778849e+00  2.2576779042981667e+00 -1.2784309855932008e+00 1.0569431871162331e+00 -1.2784309855932003e+00 -2.0695965690604372e+00 -1.5112679861127562e-01 1.0569431871162334e+00 -1.5112679861127562e-01 1.8994349962214445e+00  3.0633576365093975e+00 -1.2490687655050594e+00 1.1585052322052696e+00 -1.2490687655050592e+00 -2.3749192987430114e+00 2.7583105536305075e-01 1.1585052322052696e+00 2.7583105536305075e-01 2.4097491230637842e+00  2.8071451468573310e+00 -1.0878480681593725e+00 1.1132651550087553e+00 -1.0878480681593725e+00 -2.3232372004495172e+00 5.1066127388845794e-01 1.1132651550087553e+00 5.1066127388845794e-01 2.3793527478684280e+00  2.5272952521483396e+00 -8.1431301931455502e-01 8.5540943640708189e-01 -8.1431301931455502e-01 -2.3989726865012360e+00 4.2731443499618921e-01 8.5540943640708189e-01 4.2731443499618921e-01 2.3340779659381479e+00  1.8854840787734655e+00 -6.7600364827061787e-01 6.3965610015636809e-01 -6.7600364827061787e-01 -2.2980312650220505e+00 1.8540229712213441e-01 6.3965610015636809e-01 1.8540229712213441e-01 2.3955191159531233e+00  1.2947527007290143e+00 -6.2971822988157955e-01 1.1753151365841159e+00 -6.2971822988157955e-01 -2.0198430831615655e+00 -1.9823917684123007e-01 1.1753151365841159e+00 -1.9823917684123007e-01 2.2254844095863198e+00  8.4439658519663774e-01 -2.8533478431101195e-01 1.3205443642081793e+00 -2.8533478431101195e-01 -6.8835967085957495e-01 -8.9762216751977777e-02 1.3205443642081793e+00 -8.9762216751977764e-02 4.4806430317546560e-02  3.1567688081046383e+00 9.7616150482681907e-01 -7.0650556968700406e-01 9.7616150482681907e-01 -1.9939425252968839e+00 -1.2480027603115709e+00 -7.0650556968700406e-01 -1.2480027603115709e+00 1.0272216461131760e+00  2.7946403920514364e+00 2.4562180752425449e+00 -2.0519383970135183e-01 2.4562180752425453e+00 -1.1968047885067707e+00 -1.3656773209866189e+00 -2.0519383970135177e-01 -1.3656773209866189e+00 1.1208068671762175e+00  1.1215867392131607e+00 2.8427129408622820e+00 2.0922731619852603e-01 2.8427129408622820e+00 -8.8118406021044871e-02 -1.3391944635388775e+00 2.0922731619852630e-01 -1.3391944635388775e+00 1.4106928444117179e+00  -5.1819533336274726e-01 2.7629658308611402e+00 5.3420940818344476e-01 2.7629658308611407e+00 1.5247462416571853e+00 -1.2489877096346491e+00 5.3420940818344476e-01 -1.2489877096346491e+00 1.5150309954285808e+00  -1.5812677447898902e+00 1.6638051593382186e+00 8.0935558439267608e-01 1.6638051593382186e+00 1.9396946985270096e+00 -1.2287791292229748e+00 8.0935558439267608e-01 -1.2287791292229748e+00 1.6995837363920185e+00  -1.7852182687808411e+00 5.8854158708926196e-01 1.1943181887607048e+00 5.8854158708926196e-01 2.4143045656887732e+00 -8.8997791861048559e-01 1.1943181887607048e+00 -8.8997791861048559e-01 1.1788930898125727e+00  -1.4190857053290349e+00 -6.1596538022841174e-01 1.4245962152995062e+00 -6.1596538022841185e-01 1.9673848480261211e+00 -5.3542073404202406e-01 1.4245962152995062e+00 -5.3542073404202406e-01 7.9079452947116113e-01  -1.4203460045514376e+00 -9.0507999214697521e-01 1.1033408469554398e+00 -9.0507999214697521e-01 1.3765667030745889e+00 -4.8529976915837114e-01 1.1033408469554398e+00 -4