<?xml version="1.0"?>
<VTKFile type="UnstructuredGrid"  version="0.1"  >
<UnstructuredGrid>
<Piece  NumberOfPoints="1268" NumberOfCells="4847">
<Points>
<DataArray  type="Float64"  NumberOfComponents="3"  format="ascii">1.994716987487452 0.01317707561264319 -1.202466945460223e-11  1.374072606111497 -0.08614134488653273 -5.388997575085332  -1.285941478930618 0.1916557790035214 -5.691288663606836  -1.59032616235459 -0.4515196446136259 1.626303258728257e-17  0.4950030257755884 2.521650519233041 -5.495391852657774  -0.4107718940653654 -2.429115409112172 -5.58531208084276  -0.9314707163843408 -3.006923447963563 4.87890977618477e-17  1.161824811771535 2.948440156756841 -3.391384395534658e-14  2.146749234505421 0.002696741478414759 -0.5615078450779066  2.330988047973839 -0.000873250973709995 -1.113141311680313  2.540713632977715 -0.1384292375506191 -1.637427654548237  2.645241452520652 -0.2872312815961211 -2.18637082393926  2.504842461151312 -0.2752146673621067 -2.746850782899552  2.287876352721185 -0.2088259978706829 -3.283011632728322  2.137771360922677 -0.2093380261300688 -3.844996501809416  1.970142554575494 -0.2193701374385486 -4.401638277082749  1.701580801829277 -0.1696632515169769 -4.915066532844666  1.398049690886424 0.4419377546899956 -5.387643705321969  1.183972204621215 0.9208338616597355 -5.413149504812257  0.7621482426349403 1.234356207118232 -5.461782499987256  0.2539805730796886 1.370727420898931 -5.519751404145364  -0.2689415860383004 1.319053689498898 -5.578906487138381  -0.7357170559581984 1.076180709179107 -5.631191713357971  -1.086003096318238 0.6812820615514149 -5.669884670156524  -1.65706961757681 -0.5275128747266272 -0.6240725009925172  -1.829082870387909 -0.8347372240299333 -1.153553189134448  -2.030635262011336 -1.097965926806997 -1.693320688638939  -2.148557703924963 -0.9683820133813712 -2.295450526931833  -2.119047321408695 -0.7521727279271558 -2.890676896601294  -1.972500555455803 -0.7106310836492745 -3.509380855831461  -1.885028119342598 -0.4902108162504233 -4.093718100793141  -1.832050776792238 -0.1313823297003599 -4.617858136599065  -1.636180550340053 0.1151199882480144 -5.165527944859976  -1.540434086810702 0.1014447694855235 -7.644826989049428e-17  -1.339902801239663 0.6191128040412099 2.218327606354497e-17  -0.9949589579071262 1.053322092476122 2.12059320661159e-17  -0.5243975458638882 1.346285776146202 7.754217898549941e-16  0.01399251627036286 1.481823287560149 3.252316763596149e-17  0.5696211504784076 1.47677978548424 -7.207855520904863e-17  1.105448032340458 1.331487337928338 1.951563910473908e-16  1.561367740818086 1.018090979386763 -2.179459114756194e-16  1.860006992193919 0.551530302300456 1.369433074745588e-16  -0.152869286718376 2.506583809965366 -5.568804938302105  -0.7781210310064858 2.335338381675429 -5.639249366957451  -1.340550096787874 2.011723800088065 -5.702178028336585  -1.803922993566052 1.555830170950866 -5.753534898075912  -2.144678763029901 1.000979069722826 -5.790734833138769  -2.346903237737564 0.3811866585909049 -5.812061421922149  -2.406990243842066 -0.2684488461825228 -5.817196438260218  -2.318433628103212 -0.9144163570965761 -5.805488779558074  -2.059391262210163 -1.511004864267824 -5.774580158166454  -1.615755841275718 -1.983465489741105 -5.72306417450185  -1.043145925381342 -2.287058241276404 -5.657361969815248  -0.6986882361605687 -2.420627649803484 -5.024556445072709  -0.8272574030199392 -2.685291244074475 -4.476216325063944  -0.8113210073272845 -3.118860027310894 -4.01596683617901  -0.7618552434953355 -3.481598098596065 -3.504026669625047  -0.7509882165597778 -3.609083979854663 -2.886473298216772  -0.7986167670519319 -3.732483084086931 -2.268445488219849  -0.8276969497603353 -3.810997815301134 -1.64593496945388  -0.7425506523451623 -3.557242155569485 -1.078322423839125  -0.7147449622328144 -3.21189056194362 -0.5511080601316157  -1.482234509376526 -2.778582553401298 -5.854479658363816e-16  -1.970737176894139 -2.437284655419533 2.764697292186607e-16  -2.362818572203899 -1.988727212877528 2.439101268600111e-16  -2.642390785384022 -1.462244173776716 5.051059276813266e-16  -2.812149102113852 -0.89052423419162 2.276851973687203e-16  -2.877946727920729 -0.2976446157883296 -1.219909928720168e-16  -2.842947107925845 0.2978601752284433 4.065446096494693e-17  -2.70313036896374 0.8776122116387211 -5.041496169361013e-16  -2.452324348076021 1.418519584933707 4.379274460317988e-16  -2.098265626135573 1.898294456130726 1.951060033519619e-16  -1.658391347368763 2.301023318502569 -1.789574489620802e-16  -1.154148079923361 2.619757341302747 -2.081203863085907e-15  -0.6042202207747882 2.851073703499478 -3.577841418755692e-16  -0.02416138323675775 2.990516581461941 4.065982498622179e-16  0.5710641261211448 3.028216945076794 -1.46882551317968e-16  0.6414151130412097 2.696325287154043 -4.983333021490838  0.771852374565919 2.778456367279237 -4.445188759107248  0.8805845204306011 2.73078881179073 -3.897720120696569  0.9481597620953167 2.69798349057175 -3.343104559074628  0.9815370707090804 2.778214865778854 -2.789250505759619  1.013475345489448 2.861817704396183 -2.235671116027784  1.055849759321274 2.898356228459238 -1.677594140621302  1.093646323460014 2.92793989028903 -1.118725590781912  1.124098871622056 2.957526991478201 -0.5594169689370629  0.2477015793419729 -2.415655802610486 -5.510682951113449  0.8844491790088972 -2.245867158009595 -5.438931443942415  1.464891069119211 -1.932330028996181 -5.373934600293736  1.955087092649627 -1.489613175355717 -5.319502697776375  2.318355026965356 -0.937054784961175 -5.279744576064058  2.524994411863564 -0.307899182343253 -5.257941630215678  2.574632820450045 0.3531084349228537 -5.254020561031156  2.465743861849647 1.006614152640354 -5.268052816559671  2.183897076015212 1.604484044160622 -5.301550147358176  1.722560240631265 2.07491696755195 -5.35506775502591  1.13806318635062 2.378906583716481 -5.422118662603529  1.742182153284979 2.73179858498085 5.854691697147836e-16  2.262480931380501 2.395264875892136 -2.601681534737615e-16  2.698000706832733 1.954727370266727 -3.903113804560263e-16  3.021530388777258 1.426473918441798 1.707421408502106e-16  3.223363606607101 0.8405687193648443 -2.844806418042028e-16  3.305434793487241 0.2261994274297442 -4.472186606099012e-16  3.269241566985055 -0.3926051469820059 3.171555149681837e-16  3.113478077610213 -0.9924495549400153 3.510830505762065e-16  2.840400132149515 -1.548806515270482 -1.707368614952523e-16  2.466120284856568 -2.042983582774378 9.732831365154574e-17  2.008125599488538 -2.460814027017948 -3.577575055983979e-16  1.482521285196868 -2.789563899556613 -4.886146623064541e-17  0.9057866143556688 -3.01678997208197 -2.439392613813594e-16  0.2964958724913082 -3.130681163554852 3.414395345104792e-16  -0.32338307292875 -3.126978161260848 2.926910878106614e-16  -1.29067345658392 -0.3506098753383553 -5.690421630247788  -1.068897680254163 -0.8451623229646739 -5.663999894259847  -0.6782440885714781 -1.219621806060448 -5.6187489875115  -0.168757542531344 -1.390394566692369 -5.560546895724229  0.3611301401510615 -1.294122251639114 -5.500717901478111  0.8191548613516448 -1.005201308695582 -5.449538098373106  1.16817203978903 -0.5892762115769014 -5.411042670828763  1.960898302630318 -0.551652302616722 -8.131516293641286e-17  1.751009740180289 -1.077278642631261 7.445724005953314e-16  1.394016468000002 -1.516729095803803 1.136104663605282e-15  0.9227767039454898 -1.830301465573364 3.434443593283319e-16  0.3780412068884804 -1.984007749105097 8.617772484356591e-16  -0.1885780664025548 -1.977994130030172 2.357202029695971e-16  -0.7327557451871473 -1.821291124380143 1.942410916395698e-17  -1.191068596016128 -1.491774666596192 2.975009434367945e-16  -1.480405544894888 -1.006855825633415 6.954512630084263e-16  -1.812414118534285 0.2561131097252937 -2.664867827914479  2.421751940242729 0.6298287624476981 -1.933377861698098  0.7556418177061754 1.42269463362527 -4.617654324361507  0.003134751711410342 1.574821943356493 -0.9318675177876981  1.015098001669947 1.51699057942374 -0.9441494884276413  0.6193243625380082 1.764115149411371 -1.862230514405671  -0.4757031201037318 1.549728101933577 -1.958273018773558  0.1126459993007786 1.698838152590054 -2.957602797129454  -0.3405660022430232 1.569615851499001 -4.678135257405353  1.818199099779932 0.7365610114574719 -3.763003518505052  -0.9541815370276669 1.23451227632913 -2.875526912859068  -1.269464226480212 1.016489154450913 -4.672047638709048  1.301562892980348 1.557566760682666 -2.802482532053872  -0.7813756340336595 1.414221906310649 -3.725761628685261  -1.58370798409762 0.5643609111372817 -3.581008460136619  -0.988817348255397 1.158392548936659 -1.014254585170146  -1.607700527190565 0.2800106654898483 -1.030081240453645  -1.388203055800784 0.7951310659851955 -1.943712885648593  0.8261955720421881 1.570157055202129 -3.620947225245673  1.681455131778566 1.410849015379531 -1.876189895849114  1.878739160554727 0.943024132521903 -0.9866418074548234  2.103426639579445 1.000735947836943 -2.593434794762663  1.62623803052506 0.6468498306152269 -4.727220189271843  -1.882943490361709 -0.1546739965127431 -1.761716647663214  0.05868355051519467 1.656538949473053 -3.863342338366238  2.465845305360337 0.2632819454094029 -2.663569745038379  1.994842599423799 0.5019775153043848 -0.4779055074204815  2.1671824130763 0.4980244878585698 -1.027636182799239  1.710213566460811 0.9718796190568162 -0.4957578884333736  1.845584590132108 0.2253887364997403 -4.583879812097906  1.579035044615276 0.2924902970866011 -5.101748935835201  1.409777182251665 0.7868327264427526 -5.07202467441607  -1.039178737375989 1.089168173550246 -5.170746090958521  -1.377687418630729 0.6683636420802941 -5.233117919580046  -1.641402128985454 0.4875654733502939 -4.648722230221863  -1.765467255797776 -0.2695484060062747 -1.079683539430899  -1.617858736076732 -0.08318463488274264 -0.5123563299218489  -1.474019211051276 0.4496529111656123 -0.5150171376928306  2.417677350191343 0.3274903893149403 -1.506992657970159 
[...]
<PointData  Tensors="stress"> 
<DataArray  type="Float64"  Name="stress"  NumberOfComponents="9" format="ascii">7.3682369335703179e-01 -2.0015877224743470e-01 -5.4522175050963844e+00 -2.0015877224743470e-01 1.8938832533169068e+00 -6.5943979266059238e-01 -5.4522175050963844e+00 -6.5943979266059238e-01 5.7948025091237163e+00  -1.6271882219924696e+00 9.3620973264597385e-01 2.8638471773780378e+00 9.3620973264597396e-01 9.1855762698897649e+00 -1.6247413554591339e+00 2.8638471773780383e+00 -1.6247413554591339e+00 2.3836161618286704e+00  -7.9274756548940117e-01 1.4594706037970613e+00 -3.4116238106124652e+00 1.4594706037970613e+00 8.8831492606285423e+00 1.8184785720662204e+00 -3.4116238106124652e+00 1.8184785720662200e+00 2.1233217511534299e+00  3.4922799719179992e-01 -7.3199628725154264e-01 5.0752191341535458e+00 -7.3199628725154264e-01 1.7395167353943917e+00 -6.5333197826495881e-01 5.0752191341535458e+00 -6.5333197826495881e-01 6.2873951475080929e+00  2.1168816263907764e+00 -1.9481195197879397e-01 1.1155799274890803e+00 -1.9481195197879406e-01 -1.4962723856147249e+00 1.0597737972509207e+00 1.1155799274890803e+00 1.0597737972509207e+00 7.9909380794437601e-01  3.7797118444771902e+00 -1.3581782635990658e-01 -1.0371868584182344e+00 -1.3581782635990652e-01 -2.3818414269761257e+00 -7.2470573089945556e-01 -1.0371868584182344e+00 -7.2470573089945556e-01 1.0961436329390184e+00  5.7361657216240147e-01 2.9167002647190832e-01 -1.0086579856631759e+00 2.9167002647190832e-01 1.5309118412327774e-01 3.3939322042742983e+00 -1.0086579856631759e+00 3.3939322042742983e+00 1.9083352371770532e+00  2.8887651264822023e-01 5.7705533387700081e-01 1.1344761224899418e+00 5.7705533387700081e-01 1.0869278780923162e+00 -1.5222887912323708e+00 1.1344761224899418e+00 -1.5222887912323708e+00 -5.4340460011837655e-01  -2.1346646969252943e+00 -8.3898195119647423e-01 -3.0347988125360303e+00 -8.3898195119647456e-01 5.1737878536124109e+00 -1.5836106147195412e+00 -3.0347988125360303e+00 -1.5836106147195415e+00 4.8266076937602991e+00  -2.5191561329760117e+00 -1.1202082301119545e+00 -2.4398482316752061e+00 -1.1202082301119545e+00 6.8803306796086794e+00 -1.2746143522953550e+00 -2.4398482316752061e+00 -1.2746143522953550e+00 4.5074772239757870e+00  -2.9990461546268117e+00 -2.0168662857508948e-01 -2.1154489041687601e+00 -2.0168662857508937e-01 7.5332545676497027e+00 -7.0778433624412462e-01 -2.1154489041687601e+00 -7.0778433624412473e-01 5.0544635926128079e+00  -3.3829987589477462e+00 5.2859294764182074e-01 3.6609193999415000e-02 5.2859294764182074e-01 7.3898079338293332e+00 -1.1090970490305692e+00 3.6609193999415014e-02 -1.1090970490305692e+00 5.9792030312912487e+00  -2.5466697054644887e+00 -8.6945354869298788e-02 2.4766291114615333e+00 -8.6945354869298788e-02 8.5723781966320427e+00 -1.4337864299738816e+00 2.4766291114615333e+00 -1.4337864299738816e+00 4.2784241675807788e+00  -2.3968226517298259e+00 -9.1167025964902770e-01 2.1954676397979780e+00 -9.1167025964902770e-01 9.4994672340666142e+00 -5.1361403455891363e-01 2.1954676397979780e+00 -5.1361403455891363e-01 3.0164402935957404e+00  -2.6336538450255973e+00 -3.1889074147695373e-01 1.9283825730668842e+00 -3.1889074147695373e-01 9.7497358690645175e+00 -3.1944786852929391e-01 1.9283825730668842e+00 -3.1944786852929391e-01 3.1515335043982158e+00  -2.2903539124041647e+00 1.3819350050402637e-01 2.5306470970166925e+00 1.3819350050402637e-01 9.2505144151587810e+00 -8.4549582097875331e-01 2.5306470970166921e+00 -8.4549582097875331e-01 3.0278672499905395e+00  -1.3578723619012016e+00 6.7073701816477116e-01 3.2981771897258856e+00 6.7073701816477116e-01 9.1397274181096861e+00 -1.1275925341796680e+00 3.2981771897258856e+00 -1.1275925341796680e+00 2.4755938315532111e+00  -1.0257638354715453e+00 -2.6337417409832167e+00 3.5168353274846784e+00 -2.6337417409832167e+00 7.7861436378836082e+00 -3.1127753022158050e-01 3.5168353274846784e+00 -3.1127753022158056e-01 3.0653269763572073e+00  2.2332941024504942e+00 -5.3146280467687461e+00 2.8023344104653596e+00 -5.3146280467687452e+00 4.2159817711761614e+00 1.1020830227512197e+00 2.8023344104653596e+00 1.1020830227512197e+00 3.4341743056911138e+00  6.0659922217646791e+00 -4.1897043384683288e+00 2.1390031112138357e+00 -4.1897043384683288e+00 -2.5133133683308867e-01 2.2120127750041365e+00 2.1390031112138357e+00 2.2120127750041365e+00 3.8618729636547613e+00  7.7272484915815269e+00 -9.7622996422037722e-01 1.3276948657428751e+00 -9.7622996422037678e-01 -1.8925653525362338e+00 3.2362525544657603e+00 1.3276948657428749e+00 3.2362525544657590e+00 3.9831463158854361e+00  7.1920282779479683e+00 2.3361694174855416e+00 -1.4467981236015276e-01 2.3361694174855416e+00 -9.1162078473457442e-01 3.8940458670289884e+00 -1.4467981236015273e-01 3.8940458670289888e+00 3.7720251139643777e+00  4.4028112742487977e+00 4.4837637130107311e+00 -1.3944607465387011e+00 4.4837637130107311e+00 2.1788060020838675e+00 3.6832498447806592e+00 -1.3944607465387011e+00 3.6832498447806592e+00 3.1934020597640087e+00  1.2221015019752233e+00 4.1057348074907560e+00 -2.5342028078767331e+00 4.1057348074907569e+00 5.9346502316186784e+00 3.0526755191423209e+00 -2.5342028078767331e+00 3.0526755191423209e+00 2.7653234971104723e+00  -2.5724028929303451e+00 -3.0043264532213770e-01 2.7783735564820322e+00 -3.0043264532213770e-01 4.5311160395630399e+00 2.8329869170200583e-01 2.7783735564820322e+00 2.8329869170200583e-01 5.0627745811273028e+00  -2.5141851055444220e+00 -7.2671179800423436e-01 2.5001428651790665e+00 -7.2671179800423436e-01 6.4727283773118476e+00 1.8684824730088254e-01 2.5001428651790665e+00 1.8684824730088248e-01 3.8577675755347483e+00  -2.8460242211588369e+00 -7.6179146748360715e-01 2.1889454885039741e+00 -7.6179146748360715e-01 6.9248339300316060e+00 6.0244932101976878e-01 2.1889454885039741e+00 6.0244932101976878e-01 4.8935057828624782e+00  -3.4200152775339592e+00 -3.5639239435282649e-01 4.4420341938367758e-01 -3.5639239435282649e-01 7.6738482056681327e+00 1.0917867562099275e+00 4.4420341938367791e-01 1.0917867562099275e+00 5.4955521955562601e+00  -3.2577169015104830e+00 6.2237857877400347e-02 -9.4056189831562775e-01 6.2237857877400347e-02 8.3781541898124026e+00 1.8026679942933215e+00 -9.4056189831562775e-01 1.8026679942933215e+00 4.9963644916993788e+00  -2.8985139283955692e+00 -4.6606189160396411e-01 -1.2978728072515713e+00 -4.6606189160396411e-01 9.0805331083110286e+00 2.1094734068995966e+00 -1.2978728072515713e+00 2.1094734068995966e+00 3.8287939067050147e+00  -3.0382878760053802e+00 -2.8539015093359077e-01 -9.8139211761993705e-01 -2.8539015093359077e-01 9.0454195787415390e+00 2.3672708054751856e+00 -9.8139211761993694e-01 2.3672708054751856e+00 4.0863526729268731e+00  -3.0505611855588541e+00 8.5945685958846507e-01 -1.3067710199404596e+00 8.5945685958846507e-01 8.6974372241707041e+00 2.0677295617781222e+00 -1.3067710199404596e+00 2.0677295617781222e+00 4.7138862500978407e+00  -2.0144240425654663e+00 1.2258116883028483e+00 -2.7393031198884290e+00 1.2258116883028480e+00 8.5625816502067948e+00 2.1500722024149783e+00 -2.7393031198884290e+00 2.1500722024149788e+00 3.9275384943108991e+00  -1.5973158329787038e-01 -1.0833264810488271e-02 4.8874179220740679e+00 -1.0833264810488271e-02 1.9947952845250267e+00 -1.2845635572296228e+00 4.8874179220740679e+00 -1.2845635572296228e+00 6.7390850439898262e+00  8.9151987313591710e-02 6.3483308743237332e-01 4.1487566147321919e+00 6.3483308743237332e-01 1.6443933190040942e+00 -2.6944140601401374e+00 4.1487566147321919e+00 -2.6944140601401374e+00 6.7515805372205113e+00  5.4389595521881595e-01 1.2057231669660566e+00 3.4497114379459339e+00 1.2057231669660564e+00 1.1064967651591429e+00 -3.5139133162179284e+00 3.4497114379459339e+00 -3.5139133162179292e+00 7.0515413156266051e+00  1.4169612376063057e+00 9.3301106204076145e-01 2.0332518945645748e+00 9.3301106204076145e-01 4.0965361683307372e-01 -4.3757058670018285e+00 2.0332518945645748e+00 -4.3757058670018285e+00 7.1148167618125058e+00  1.8537715378154627e+00 6.4578946205237431e-01 1.2314729438046725e+00 6.4578946205237431e-01 -3.3806754997822604e-02 -4.7771332328674561e+00 1.2314729438046725e+00 -4.7771332328674561e+00 7.4127647641718912e+00  2.0092046336386953e+00 6.7018678236145171e-02 -5.5644706228620178e-01 6.7018678236145171e-02 -5.7858677109726919e-02 -4.9764204267721217e+00 -5.5644706228620178e-01 -4.9764204267721217e+00 7.6544054786612623e+00  1.9764515835304284e+00 -3.8876782434887935e-01 -1.6988702703876410e+00 -3.8876782434887935e-01 6.0239016216239588e-02 -4.8676819863374536e+00 -1.6988702703876410e+00 -4.8676819863374527e+00 6.6896204391925176e+00  1.5463392034592158e+00 -1.0434219925145520e+00 -3.8954013960007972e+00 -1.0434219925145520e+00 9.0623497423677202e-01 -3.5131110143504092e+00 -3.8954013960007972e+00 -3.5131110143504092e+00 7.2981062583542320e+00  5.6377374567547411e-01 -8.6633823316121450e-01 -4.9772208804677467e+00 -8.6633823316121450e-01 1.5204794716412386e+00 -1.9673432964813933e+00 -4.9772208804677467e+00 -1.9673432964813933e+00 7.9436776000897344e+00  1.8559996312715039e+00 6.9435981745190900e-01 6.3357631223888655e-01 6.9435981745190900e-01 -1.3252450528379547e+00 1.4667091714567744e+00 6.3357631223888655e-01 1.4667091714567744e+00 9.0777274089272475e-01  1.6624963175479972e+00 1.4465611576534816e+00 3.2788204516400166e-01 1.4465611576534816e+00 -9.2383757782325715e-01 1.5680992349108784e+00 3.2788204516400166e-01 1.5680992349108784e+00 8.6106924340112101e-01  5.3747595003482107e-01 1.6667050578662959e+00 -2.1481759089089919e-01 1.6667050578662965e+00 -1.1837407387994993e-01 1.6523194602854367e+00 -2.1481759089089925e-01 1.6523194602854367e+00 9.8526331032405667e-01  -1.3100702605109918e-01 1.8279498124189497e+00 -8.8823953555201018e-01 1.8279498124189497e+00 1.3485241471596354e+00 1.4846420371936546e+00 -8.8823953555201018e-01 1.4846420371936546e+00 4.9115609066713095e-01  -8.7834912414839139e-01 1.1840674124857564e+00 -1.2407661439418887e+00 1.1840674124857564e+00 2.2228689034061619e+00 1.3422176397198431e+00 -1.2407661439418882e+00 1.3422176397198431e+00 4.1448913195194526e-01  -1.3530114694092898e+00 3.9289937956144982e-01 -1.4778747322629360e+00 3.9289937956144994e-01 2.3876026639750076e+00 9.3987902334884255e-01 -1.4778747322629362e+00 9.3987902334884266e-01 6.9502651840434515e-01  -1.1482919922532631e+00 -4.5848673548907354e-01 -1.8378580105302060e+00 -4.5848673548907354e-01 2.4243053797924090e+00 5.9919216946864273e-01 -1.8378580105302060e+00 5.9919216946864295e-01 6.6859501112336361e-01  -5.6911704521022266e-01 -1.5227815157521549e+00 -1.5813608012526628e+00 -1.5227815157521554e+00 1.8425125720935771e+00 3.0111460633691928e-02 -1.5813608012526625e+00 3.0111460633692005e-02 2.7205623595602801e-01  4.5710260410716247e-01 -1.9924824772881033e+00 -1.6974587969321460e+00 -1.9924824772881036e+00 4.2763747170130545e-01 1.5803439867141175e-01 -1.6974587969321464e+00 1.5803439867141181e-01 6.5182667232513192e-01  1.1602125176333649e+00 -8.5563825754086353e-01 -1.5741704078758321e+00 -8.5563825754086353e-01 -1.2906462069587501e+00 -4.8404677943558644e-01 -1.5741704078758318e+00 -4.8404677943558672e-01 1.0297154424301189e+00  2.8538979192445990e+00 -1.2395572192372284e+00 -1.2278960181911516e+00 -1.2395572192372284e+00 -1.7547703273315967e+00 -8.5327453046395552e-01 -1.2278960181911511e+00 -8.5327453046395563e-01 9.2045922357749788e-01  5.0349149547323071e+00 -8.2508081013150303e-01 -1.4358617992694891e+00 -8.2508081013150314e-01 -2.3287016782153103e+00 -1.9403104644492537e+00 -1.4358617992694889e+00 -1.9403104644492537e+00 2.5640200880171493e+00  5.0132327194953819e+00 -5.8092346408789408e-01 -1.2763079618864419e+00 -5.8092346408789408e-01 -9.5999242976786425e-01 -3.0498787788168351e+00 -1.2763079618864419e+00 -3.0498787788168351e+00 1.5164819199606052e+00  3.9676547131915525e+00 -1.4218845864397747e-01 -7.1919683937646195e-01 -1.4218845864397769e-01 -8.7278411035990966e-01 -2.5771159961340016e+00 -7.1919683937646195e-01 -2.5771159961340007e+00 3.3965060538036801e-01  3.2849621197598529e+00 1.3404252064379906e-02 -5.6466745506889171e-01 1.3404252064380076e-02 -1.7717464822987341e+00 -1.7382192384938315e+00 -5.6466745506889171e-01 -1.7382192384938315e+00 8.5561503758389634e-01  2.9347098652068362e+00 -5.9374297238378282e-01 -9.7234318285444887e-01 -5.9374297238378249e-01 -2.3866489722240090e+00 -1.0964028964759371e+00 -9.7234318285444887e-01 -1.0964028964759374e+00 2.3184810935462909e+00  2.2930462537949547e+00 -6.3830069905985964e-01 -7.7987237618063332e-01 -6.3830069905985976e-01 -2.4264163583376779e+00 -5.4666622677586463e-01 -7.7987237618063332e-01 -5.4666622677586463e-01 2.4045467506560843e+00  1.4501351070992110e+00 -9.4137943599339458e-01 -1.3987082081588870e-01 -9.4137943599339435e-01 -1.7991637023878422e+00 7.5213244394172141e-01 -1.3987082081588870e-01 7.5213244394172141e-01 1.4610066194059659e+00  1.4427332974054583e+00 -1.4623290723917093e+00 -6.7155978096441167e-03 -1.4623290723917093e+00 -1.1120337596599934e+00 2.2716348853146835e+00 -6.7155978096441228e-03 2.2716348853146830e+00 2.2119878025355928e+00  1.6686574355615238e+00 -1.1794527707605413e+00 -2.7646915436014630e-01 -1.1794527707605413e+00 -1.2069040706923029e+00 2.9674856316137537e+00 -2.7646915436014630e-01 2.9674856316137541e+00 3.3713143414347058e+00  5.9575792115021475e-01 2.1453784647180718e-01 -3.7663054521138783e-01 2.1453784647180718e-01 -7.6010619072332503e-02 3.2131635851410811e+00 -3.7663054521138783e-01 3.2131635851410811e+00 1.4292524862776264e+00  5.9351967875960898e-01 7.0251537871930572e-02 8.7572591937754060e-02 7.0251537871930544e-02 -2.1136460442032234e-01 2.9532349658186252e+00 8.7572591937754143e-02 2.9532349658186252e+00 1.0640623185537035e+00  7.0277575826177641e-01 -1.7913083178538627e-01 7.0932579726854084e-01 -1.7913083178538627e-01 -2.9130683288630355e-01 2.8433525555505073e+00 7.0932579726854084e-01 2.8433525555505073e+00 1.0659508956525414e+00  8.1494594127923170e-01 -4.3201086433635777e-01 1.0986222153548222e+00 -4.3201086433635777e-01 -1.3453145691994317e-01 2.5377171525521813e+00 1.0986222153548222e+00 2.5377171525521813e+00 7.7007650909143066e-01  6.4159163199665592e-01 -3.6900274938399041e-01 1.5696439325431375e+00 -3.6900274938399041e-01 -1.1045495114532991e-01 2.2454198689845239e+00 1.5696439325431375e+00 2.2454198689845239e+00 6.7099379090808808e-01  1.0548586568871166e+00 -2.5129415686242340e-01 1.3814542380962722e+00 -2.5129415686242340e-01 1.2576762716705209e-01 1.6804074162114371e+00 1.3814542380962727e+00 1.6804074162114371e+00 -5.8625072565002578e-01  1.1422577999039549e+00 -3.8686321218027420e-01 1.6608740374065631e+00 -3.8686321218027420e-01 2.4271642882052397e-01 9.8853077336948325e-01 1.6608740374065623e+00 9.8853077336948281e-01 -7.7454952208928862e-01  6.5651777220545748e-01 -7.5891781398701896e-01 2.2309540934125796e+00 -7.5891781398701896e-01 6.6080775732110753e-01 7.8481633929510675e-01 2.2309540934125796e+00 7.8481633929510675e-01 -5.2947682842861547e-02  7.2427092445273655e-01 -8.0921705557626988e-01 2.0266580788164985e+00 -8.0921705557626988e-01 1.0378107069030988e+00 1.1664377370434165e-01 2.0266580788164985e+00 1.1664377370434165e-01 -7.9128157162352919e-01  4.4966519683264355e-01 -8.2581187380201970e-01 2.0636147920696670e+00 -8.2581187380201970e-01 1.4046923568629204e+00 -2.0402004187513628e-01 2.0636147920696670e+00 -2.0402004187513628e-01 -8.2706524720786123e-01  -9.9763957054182020e-02 -4.8768694223510434e-01 1.9032768271427034e+00 -4.8768694223510434e-01 1.6151041158624770e+00 -7.6290716346805554e-01 1.9032768271427034e+00 -7.6290716346805554e-01 -4.9440953438041985e-01  -2.4691814738123438e-01 1.1497615014112020e-01 1.8714283758834167e+00 1.1497615014112020e-01 1.4060970265343513e+00 -1.0812816641296437e+00 1.8714283758834167e+00 -1.0812816641296437e+00 4.3683361825967430e-02  2.5327776476370506e-01 1.7500322196643950e-01 1.2054161972637214e+00 1.7500322196643953e-01 1.4932217003367652e+00 -1.2187830214523117e+00 1.2054161972637216e+00 -1.2187830214523117e+00 -9.8820663896972771e-01  3.6278135666023720e-01 -6.6761658928595224e-01 -2.1020036304322648e-01 -6.6761658928595224e-01 1.7627875596922913e+00 -1.6550732706521494e+00 -2.1020036304322651e-01 -1.6550732706521494e+00 -1.5343842707075503e+00  -1.6438407089097709e-01 5.3842274744472818e-01 8.7613362387303950e-01 5.3842274744472818e-01 1.1421077500926067e+00 -1.5565694546274040e+00 8.7613362387303950e-01 -1.5565694546274040e+00 -9.6917092677263811e-02  1.9507643505138823e+00 -8.0771354936736839e-01 8.4206949952195298e-01 -8.0771354936736839e-01 -1.7297475002823071e+00 7.2060872861622982e-01 8.4206949952195298e-01 7.2060872861622971e-01 1.2588476281487440e+00  1.9327258816534099e+00 -8.5573246332971886e-01 1.0406181668029668e+00 -8.5573246332971886e-01 -1.9395231780932083e+00 6.7293852465764747e-02 1.0406181668029666e+00 6.7293852465764609e-02 1.4365137118543527e+00  2.5426298941094769e+00 -1.3633353989370720e+00 1.0906196814441327e+00 -1.3633353989370718e+00 -2.2166412176730712e+00 -1.0929947055086395e-01 1.0906196814441329e+00 -1.0929947055086382e-01 2.1748739789226712e+00  3.3947887886183872e+00 -1.3710835312486107e+00 1.1992196488230018e+00 -1.3710835312486109e+00 -2.4753552540507453e+00 3.1831867973780137e-01 1.1992196488230018e+00 3.1831867973780137e-01 2.7357567116922210e+00  3.1163230725769124e+00 -1.1691515988092371e+00 1.1604178895439368e+00 -1.1691515988092376e+00 -2.4399479906811958e+00 5.7918077298916182e-01 1.1604178895439368e+00 5.7918077298916182e-01 2.7119901005169247e+00  2.8110054218086762e+00 -8.9942200502727521e-01 9.0383248070848132e-01 -8.9942200502727532e-01 -2.5368273442642026e+00 4.6384773505752780e-01 9.0383248070848132e-01 4.6384773505752780e-01 2.7023257120804645e+00  2.1737556921827896e+00 -7.4405718277151700e-01 7.0500076191260996e-01 -7.4405718277151700e-01 -2.4752383478187148e+00 2.1156104265114523e-01 7.0500076191260996e-01 2.1156104265114523e-01 2.8099836853792248e+00  1.5182798338309103e+00 -6.9771198434502357e-01 1.2704835227201412e+00 -6.9771198434502357e-01 -2.2294663945188522e+00 -1.8492847132859971e-01 1.2704835227201412e+00 -1.8492847132859977e-01 2.6750149820603393e+00  9.3155746719816401e-01 -3.9208574441976574e-01 1.3997613753726055e+00 -3.9208574441976574e-01 -9.0403368356779090e-01 -1.2342373224817892e-01 1.3997613753726055e+00 -1.2342373224817892e-01 2.2358080449985854e-01  3.4862146886819629e+00 1.0302473235843499e+00 -7.0727217078216598e-01 1.0302473235843499e+00 -2.1184764784109769e+00 -1.3933641126245517e+00 -7.0727217078216598e-01 -1.3933641126245517e+00 1.2607589657963150e+00  3.0770659296933500e+00 2.6035202506018291e+00 -2.4290701587916944e-01 2.6035202506018291e+00 -1.2749982549377028e+00 -1.5168310615774585e+00 -2.4290701587916944e-01 -1.5168310615774585e+00 1.3872143489972673e+00  1.3213500427337490e+00 3.0643890323670711e+00 2.5596624380922528e-01 3.0643890323670702e+00 -9.5877915551423040e-02 -1.4725943593763964e+00 2.5596624380922528e-01 -1.4725943593763964e+00 1.7246142398119964e+00  -4.4375402412253734e-01 2.9976020019065066e+00 5.9367911284497599e-01 2.9976020019065071e+00 1.6982923978617182e+00 -1.3928015161968408e+00 5.9367911284497599e-01 -1.3928015161968410e+00 1.7642047605712459e+00  -1.6345280348630855e+00 1.8384314173630187e+00 9.3583344575114502e-01 1.8384314173630187e+00 2.2101949539133354e+00 -1.3397233918816185e+00 9.3583344575114502e-01 -1.3397233918816185e+00 1.9565846018781732e+00  -1.9035888488779056e+00 6.7219153733602610e-01 1.3575255027198816e+00 6.7219153733602588e-01 2.7567951719481223e+00 -9.8536691689425626e-01 1.3575255027198811e+00 -9.8536691689425626e-01 1.4552544999994286e+00  -1.5312228332632967e+00 -6.9233094995803923e-01 1.6332660036182152e+00 -6.9233094995803901e-01 2.2435507070319600e+00 -5.8188640229191768e-01 1.6332660036182152e+00 -5.8188640229191768e-01 1.0300507440729274e+00  -1.5104542563304799e+00 -1.0487709061372958e+00 1.3408748881081338e+00 -1.0487709061372958e+00 1.6063227816009751e+00 -4.9189441488105634e-01 1.3408748881081338e+00 -4.91