<?xml version="1.0"?>
<VTKFile type="UnstructuredGrid"  version="0.1"  >
<UnstructuredGrid>
<Piece  NumberOfPoints="1268" NumberOfCells="4847">
<Points>
<DataArray  type="Float64"  NumberOfComponents="3"  format="ascii">1.994716987487452 0.01317707561264319 -1.202466945460223e-11  1.374072606111497 -0.08614134488653273 -5.388997575085332  -1.285941478930618 0.1916557790035214 -5.691288663606836  -1.59032616235459 -0.4515196446136259 1.626303258728257e-17  0.4950030257755884 2.521650519233041 -5.495391852657774  -0.4107718940653654 -2.429115409112172 -5.58531208084276  -0.9314707163843408 -3.006923447963563 4.87890977618477e-17  1.161824811771535 2.948440156756841 -3.391384395534658e-14  2.146749234505421 0.002696741478414759 -0.5615078450779066  2.330988047973839 -0.000873250973709995 -1.113141311680313  2.540713632977715 -0.1384292375506191 -1.637427654548237  2.645241452520652 -0.2872312815961211 -2.18637082393926  2.504842461151312 -0.2752146673621067 -2.746850782899552  2.287876352721185 -0.2088259978706829 -3.283011632728322  2.137771360922677 -0.2093380261300688 -3.844996501809416  1.970142554575494 -0.2193701374385486 -4.401638277082749  1.701580801829277 -0.1696632515169769 -4.915066532844666  1.398049690886424 0.4419377546899956 -5.387643705321969  1.183972204621215 0.9208338616597355 -5.413149504812257  0.7621482426349403 1.234356207118232 -5.461782499987256  0.2539805730796886 1.370727420898931 -5.519751404145364  -0.2689415860383004 1.319053689498898 -5.578906487138381  -0.7357170559581984 1.076180709179107 -5.631191713357971  -1.086003096318238 0.6812820615514149 -5.669884670156524  -1.65706961757681 -0.5275128747266272 -0.6240725009925172  -1.829082870387909 -0.8347372240299333 -1.153553189134448  -2.030635262011336 -1.097965926806997 -1.693320688638939  -2.148557703924963 -0.9683820133813712 -2.295450526931833  -2.119047321408695 -0.7521727279271558 -2.890676896601294  -1.972500555455803 -0.7106310836492745 -3.509380855831461  -1.885028119342598 -0.4902108162504233 -4.093718100793141  -1.832050776792238 -0.1313823297003599 -4.617858136599065  -1.636180550340053 0.1151199882480144 -5.165527944859976  -1.540434086810702 0.1014447694855235 -7.644826989049428e-17  -1.339902801239663 0.6191128040412099 2.218327606354497e-17  -0.9949589579071262 1.053322092476122 2.12059320661159e-17  -0.5243975458638882 1.346285776146202 7.754217898549941e-16  0.01399251627036286 1.481823287560149 3.252316763596149e-17  0.5696211504784076 1.47677978548424 -7.207855520904863e-17  1.105448032340458 1.331487337928338 1.951563910473908e-16  1.561367740818086 1.018090979386763 -2.179459114756194e-16  1.860006992193919 0.551530302300456 1.369433074745588e-16  -0.152869286718376 2.506583809965366 -5.568804938302105  -0.7781210310064858 2.335338381675429 -5.639249366957451  -1.340550096787874 2.011723800088065 -5.702178028336585  -1.803922993566052 1.555830170950866 -5.753534898075912  -2.144678763029901 1.000979069722826 -5.790734833138769  -2.346903237737564 0.3811866585909049 -5.812061421922149  -2.406990243842066 -0.2684488461825228 -5.817196438260218  -2.318433628103212 -0.9144163570965761 -5.805488779558074  -2.059391262210163 -1.511004864267824 -5.774580158166454  -1.615755841275718 -1.983465489741105 -5.72306417450185  -1.043145925381342 -2.287058241276404 -5.657361969815248  -0.6986882361605687 -2.420627649803484 -5.024556445072709  -0.8272574030199392 -2.685291244074475 -4.476216325063944  -0.8113210073272845 -3.118860027310894 -4.01596683617901  -0.7618552434953355 -3.481598098596065 -3.504026669625047  -0.7509882165597778 -3.609083979854663 -2.886473298216772  -0.7986167670519319 -3.732483084086931 -2.268445488219849  -0.8276969497603353 -3.810997815301134 -1.64593496945388  -0.7425506523451623 -3.557242155569485 -1.078322423839125  -0.7147449622328144 -3.21189056194362 -0.5511080601316157  -1.482234509376526 -2.778582553401298 -5.854479658363816e-16  -1.970737176894139 -2.437284655419533 2.764697292186607e-16  -2.362818572203899 -1.988727212877528 2.439101268600111e-16  -2.642390785384022 -1.462244173776716 5.051059276813266e-16  -2.812149102113852 -0.89052423419162 2.276851973687203e-16  -2.877946727920729 -0.2976446157883296 -1.219909928720168e-16  -2.842947107925845 0.2978601752284433 4.065446096494693e-17  -2.70313036896374 0.8776122116387211 -5.041496169361013e-16  -2.452324348076021 1.418519584933707 4.379274460317988e-16  -2.098265626135573 1.898294456130726 1.951060033519619e-16  -1.658391347368763 2.301023318502569 -1.789574489620802e-16  -1.154148079923361 2.619757341302747 -2.081203863085907e-15  -0.6042202207747882 2.851073703499478 -3.577841418755692e-16  -0.02416138323675775 2.990516581461941 4.065982498622179e-16  0.5710641261211448 3.028216945076794 -1.46882551317968e-16  0.6414151130412097 2.696325287154043 -4.983333021490838  0.771852374565919 2.778456367279237 -4.445188759107248  0.8805845204306011 2.73078881179073 -3.897720120696569  0.9481597620953167 2.69798349057175 -3.343104559074628  0.9815370707090804 2.778214865778854 -2.789250505759619  1.013475345489448 2.861817704396183 -2.235671116027784  1.055849759321274 2.898356228459238 -1.677594140621302  1.093646323460014 2.92793989028903 -1.118725590781912  1.124098871622056 2.957526991478201 -0.5594169689370629  0.2477015793419729 -2.415655802610486 -5.510682951113449  0.8844491790088972 -2.245867158009595 -5.438931443942415  1.464891069119211 -1.932330028996181 -5.373934600293736  1.955087092649627 -1.489613175355717 -5.319502697776375  2.318355026965356 -0.937054784961175 -5.279744576064058  2.524994411863564 -0.307899182343253 -5.257941630215678  2.574632820450045 0.3531084349228537 -5.254020561031156  2.465743861849647 1.006614152640354 -5.268052816559671  2.183897076015212 1.604484044160622 -5.301550147358176  1.722560240631265 2.07491696755195 -5.35506775502591  1.13806318635062 2.378906583716481 -5.422118662603529  1.742182153284979 2.73179858498085 5.854691697147836e-16  2.262480931380501 2.395264875892136 -2.601681534737615e-16  2.698000706832733 1.954727370266727 -3.903113804560263e-16  3.021530388777258 1.426473918441798 1.707421408502106e-16  3.223363606607101 0.8405687193648443 -2.844806418042028e-16  3.305434793487241 0.2261994274297442 -4.472186606099012e-16  3.269241566985055 -0.3926051469820059 3.171555149681837e-16  3.113478077610213 -0.9924495549400153 3.510830505762065e-16  2.840400132149515 -1.548806515270482 -1.707368614952523e-16  2.466120284856568 -2.042983582774378 9.732831365154574e-17  2.008125599488538 -2.460814027017948 -3.577575055983979e-16  1.482521285196868 -2.789563899556613 -4.886146623064541e-17  0.9057866143556688 -3.01678997208197 -2.439392613813594e-16  0.2964958724913082 -3.130681163554852 3.414395345104792e-16  -0.32338307292875 -3.126978161260848 2.926910878106614e-16  -1.29067345658392 -0.3506098753383553 -5.690421630247788  -1.068897680254163 -0.8451623229646739 -5.663999894259847  -0.6782440885714781 -1.219621806060448 -5.6187489875115  -0.168757542531344 -1.390394566692369 -5.560546895724229  0.3611301401510615 -1.294122251639114 -5.500717901478111  0.8191548613516448 -1.005201308695582 -5.449538098373106  1.16817203978903 -0.5892762115769014 -5.411042670828763  1.960898302630318 -0.551652302616722 -8.131516293641286e-17  1.751009740180289 -1.077278642631261 7.445724005953314e-16  1.394016468000002 -1.516729095803803 1.136104663605282e-15  0.9227767039454898 -1.830301465573364 3.434443593283319e-16  0.3780412068884804 -1.984007749105097 8.617772484356591e-16  -0.1885780664025548 -1.977994130030172 2.357202029695971e-16  -0.7327557451871473 -1.821291124380143 1.942410916395698e-17  -1.191068596016128 -1.491774666596192 2.975009434367945e-16  -1.480405544894888 -1.006855825633415 6.954512630084263e-16  -1.812414118534285 0.2561131097252937 -2.664867827914479  2.421751940242729 0.6298287624476981 -1.933377861698098  0.7556418177061754 1.42269463362527 -4.617654324361507  0.003134751711410342 1.574821943356493 -0.9318675177876981  1.015098001669947 1.51699057942374 -0.9441494884276413  0.6193243625380082 1.764115149411371 -1.862230514405671  -0.4757031201037318 1.549728101933577 -1.958273018773558  0.1126459993007786 1.698838152590054 -2.957602797129454  -0.3405660022430232 1.569615851499001 -4.678135257405353  1.818199099779932 0.7365610114574719 -3.763003518505052  -0.9541815370276669 1.23451227632913 -2.875526912859068  -1.269464226480212 1.016489154450913 -4.672047638709048  1.301562892980348 1.557566760682666 -2.802482532053872  -0.7813756340336595 1.414221906310649 -3.725761628685261  -1.58370798409762 0.5643609111372817 -3.581008460136619  -0.988817348255397 1.158392548936659 -1.014254585170146  -1.607700527190565 0.2800106654898483 -1.030081240453645  -1.388203055800784 0.7951310659851955 -1.943712885648593  0.8261955720421881 1.570157055202129 -3.620947225245673  1.681455131778566 1.410849015379531 -1.876189895849114  1.878739160554727 0.943024132521903 -0.9866418074548234  2.103426639579445 1.000735947836943 -2.593434794762663  1.62623803052506 0.6468498306152269 -4.727220189271843  -1.882943490361709 -0.1546739965127431 -1.761716647663214  0.05868355051519467 1.656538949473053 -3.863342338366238  2.465845305360337 0.2632819454094029 -2.663569745038379  1.994842599423799 0.5019775153043848 -0.4779055074204815  2.1671824130763 0.4980244878585698 -1.027636182799239  1.710213566460811 0.9718796190568162 -0.4957578884333736  1.845584590132108 0.2253887364997403 -4.583879812097906  1.579035044615276 0.2924902970866011 -5.101748935835201  1.409777182251665 0.7868327264427526 -5.07202467441607  -1.039178737375989 1.089168173550246 -5.170746090958521  -1.377687418630729 0.6683636420802941 -5.233117919580046  -1.641402128985454 0.4875654733502939 -4.648722230221863  -1.765467255797776 -0.2695484060062747 -1.079683539430899  -1.617858736076732 -0.08318463488274264 -0.5123563299218489  -1.474019211051276 0.4496529111656123 -0.5150171376928306  2.417677350191343 0.3274903893149403 -1.506992657970159 
[...]
<PointData  Tensors="stress"> 
<DataArray  type="Float64"  Name="stress"  NumberOfComponents="9" format="ascii">-3.1781308195183128e-02 -1.8407107376054319e-01 -4.1084603827490014e+00 -1.8407107376054319e-01 1.1399006997692509e+00 -1.6010654242674616e-01 -4.1084603827490014e+00 -1.6010654242674616e-01 3.8834385995284486e+00  -1.7729834579775805e+00 7.1090036398875744e-01 2.3995631003037938e+00 7.1090036398875744e-01 6.9369849551596872e+00 -1.4062279747244975e+00 2.3995631003037943e+00 -1.4062279747244975e+00 1.4070125429341784e+00  -1.1602958221641346e+00 1.1362218673526794e+00 -2.7920050160225554e+00 1.1362218673526792e+00 6.8669173745202468e+00 1.4754464003355181e+00 -2.7920050160225554e+00 1.4754464003355181e+00 1.1055587473252160e+00  -2.7924977501840093e-01 -6.3645170669120088e-01 3.7744247888159599e+00 -6.3645170669120088e-01 1.0501451655170542e+00 -8.7456029589582873e-01 3.7744247888159599e+00 -8.7456029589582873e-01 4.2522000564312128e+00  1.6527840041495840e+00 -1.2524130541137382e-01 8.7693523620108349e-01 -1.2524130541137382e-01 -1.2483138009570158e+00 7.0318463881701732e-01 8.7693523620108349e-01 7.0318463881701732e-01 4.1375665130080019e-01  3.0932854156847540e+00 -8.4327577269066187e-02 -8.6089745016091301e-01 -8.4327577269066131e-02 -1.9790640095181617e+00 -5.6869103128929155e-01 -8.6089745016091324e-01 -5.6869103128929155e-01 5.7805081840602313e-01  4.4878060669233150e-01 3.9429866149342696e-01 -1.0361910183337630e+00 3.9429866149342696e-01 -7.5964926542067462e-02 2.4226458786577814e+00 -1.0361910183337630e+00 2.4226458786577814e+00 1.0056633587428996e+00  1.7359833117081208e-01 4.9786222559162568e-01 9.1457498897378076e-01 4.9786222559162568e-01 8.8123692737643022e-01 -9.6118940467140734e-01 9.1457498897378076e-01 -9.6118940467140734e-01 -5.8178561387208116e-01  -2.3782534988099586e+00 -6.6519821627062881e-01 -2.2023485180151630e+00 -6.6519821627062881e-01 3.6846985882603889e+00 -1.1967131511323239e+00 -2.2023485180151630e+00 -1.1967131511323239e+00 3.4335848773725819e+00  -2.6126904123036967e+00 -8.2943782149955214e-01 -1.9030899416935105e+00 -8.2943782149955214e-01 5.0373035256016214e+00 -1.0404442253849624e+00 -1.9030899416935105e+00 -1.0404442253849624e+00 3.1841254835160195e+00  -3.0061227374402195e+00 -1.5707828164313070e-01 -1.6746990834632414e+00 -1.5707828164313070e-01 5.6711215302228881e+00 -5.9979858108268003e-01 -1.6746990834632405e+00 -5.9979858108268003e-01 3.6085127756426876e+00  -3.3234575117970455e+00 4.3977622946767680e-01 4.7486267644154735e-02 4.3977622946767680e-01 5.5949099945626193e+00 -9.8323014153838739e-01 4.7486267644154652e-02 -9.8323014153838739e-01 4.3916276461495558e+00  -2.6260274185846288e+00 -8.5957837935489764e-02 1.9865123451149744e+00 -8.5957837935489459e-02 6.6583846508566369e+00 -1.2564050382035288e+00 1.9865123451149744e+00 -1.2564050382035288e+00 2.9191412081552301e+00  -2.4630715149803906e+00 -8.1033726184892552e-01 1.7463125124792394e+00 -8.1033726184892563e-01 7.3908831543552704e+00 -4.3084987716082790e-01 1.7463125124792396e+00 -4.3084987716082790e-01 1.8654189733653572e+00  -2.6554636747046541e+00 -3.1349696388967130e-01 1.5382942837571789e+00 -3.1349696388967119e-01 7.6411130819302473e+00 -2.7265122409495196e-01 1.5382942837571789e+00 -2.7265122409495196e-01 1.9542609648980518e+00  -2.3703579357294653e+00 3.8843557296378811e-02 2.0456745988144678e+00 3.8843557296378811e-02 7.2651110643622854e+00 -7.4503351752132541e-01 2.0456745988144682e+00 -7.4503351752132541e-01 1.8773320000255576e+00  -1.6490219172876452e+00 4.8196703061265178e-01 2.7154870557894712e+00 4.8196703061265178e-01 7.0706110308865098e+00 -9.7060566214042876e-01 2.7154870557894712e+00 -9.7060566214042876e-01 1.5414256819950136e+00  -1.3039236100835336e+00 -2.2132385640831291e+00 2.9353878151916177e+00 -2.2132385640831291e+00 5.8536672560090492e+00 -3.0193633288320132e-01 2.9353878151916177e+00 -3.0193633288320132e-01 2.0086233835406415e+00  1.3167437158866508e+00 -4.3966345621756595e+00 2.3203162803771455e+00 -4.3966345621756586e+00 3.0104980485516979e+00 8.5348342760241103e-01 2.3203162803771455e+00 8.5348342760241103e-01 2.2553797253000161e+00  4.4301475629729996e+00 -3.3918172467659167e+00 1.7515905834581915e+00 -3.3918172467659167e+00 -7.7414517924780069e-01 1.7255024164402233e+00 1.7515905834581915e+00 1.7255024164402233e+00 2.5207500594032446e+00  5.7985970416407078e+00 -7.5729778819810878e-01 1.0915499018418540e+00 -7.5729778819810900e-01 -2.0940461386196074e+00 2.6078006304728611e+00 1.0915499018418542e+00 2.6078006304728611e+00 2.6408841817706650e+00  5.3527160046174957e+00 1.9116820838201538e+00 -1.3137060451997562e-01 1.9116820838201538e+00 -1.3227146621661963e+00 3.1803877115172003e+00 -1.3137060451997551e-01 3.1803877115172008e+00 2.5529800695567304e+00  2.9840250733059102e+00 3.6349161247856072e+00 -1.0540158909445509e+00 3.6349161247856072e+00 1.3449478037400502e+00 3.0367399308802518e+00 -1.0540158909445509e+00 3.0367399308802518e+00 1.9059210323797016e+00  3.2821514624051684e-01 3.3089114488628772e+00 -2.0131370324310636e+00 3.3089114488628768e+00 4.4262937435186043e+00 2.5053932381618491e+00 -2.0131370324310636e+00 2.5053932381618491e+00 1.7079904049171915e+00  -2.6365042854487468e+00 -7.7806997178341719e-02 1.9297174883320090e+00 -7.7806997178341719e-02 3.1325633668540847e+00 2.1584098401616572e-01 1.9297174883320090e+00 2.1584098401616572e-01 3.5849566805796855e+00  -2.5720989180405800e+00 -4.3214812930166702e-01 1.8344830381591886e+00 -4.3214812930166702e-01 4.7315053591556921e+00 1.0809291079586994e-01 1.8344830381591886e+00 1.0809291079586994e-01 2.5599728121620480e+00  -2.8951180882917122e+00 -5.7497175554328828e-01 1.5972002523742292e+00 -5.7497175554328817e-01 5.1415496115608512e+00 4.7439622978917795e-01 1.5972002523742292e+00 4.7439622978917761e-01 3.4639674438454109e+00  -3.3304134874257274e+00 -3.7808867745684627e-01 3.2104794243931378e-01 -3.7808867745684627e-01 5.8052040795978215e+00 8.8595904016660010e-01 3.2104794243931384e-01 8.8595904016660021e-01 3.9372635534957539e+00  -3.1839589115576783e+00 -1.7979024117094490e-02 -7.9833442152746947e-01 -1.7979024117094490e-02 6.3925125860023835e+00 1.5094851726444569e+00 -7.9833442152746947e-01 1.5094851726444569e+00 3.5456869725165845e+00  -2.8416195553801953e+00 -5.1533604117251430e-01 -1.0936716462326843e+00 -5.1533604117251430e-01 7.0007022071435738e+00 1.7122277176737453e+00 -1.0936716462326843e+00 1.7122277176737453e+00 2.5907772094109411e+00  -2.9274096840605481e+00 -3.1309021247600016e-01 -8.9363043314906088e-01 -3.1309021247600011e-01 6.9542221858022586e+00 1.9551179331312187e+00 -8.9363043314906088e-01 1.9551179331312187e+00 2.7869750353419698e+00  -2.9989629654922614e+00 6.4101037659229931e-01 -1.1708207322350952e+00 6.4101037659229909e-01 6.7234633899382654e+00 1.6835162332527669e+00 -1.1708207322350952e+00 1.6835162332527669e+00 3.3022898371094453e+00  -2.1974950377303437e+00 9.7884406995058204e-01 -2.2734983548344103e+00 9.7884406995058260e-01 6.6072817281971830e+00 1.7808670194397915e+00 -2.2734983548344103e+00 1.7808670194397915e+00 2.6589645095937038e+00  -8.4306120184833599e-01 7.4085387603673919e-02 3.5799579616104511e+00 7.4085387603673919e-02 1.3074338861804673e+00 -1.1898656192449175e+00 3.5799579616104511e+00 -1.1898656192449175e+00 4.8857019323139328e+00  -4.5774448895758868e-01 6.1442813637578320e-01 3.0043099634067376e+00 6.1442813637578320e-01 8.7738023582739966e-01 -2.2169255550377578e+00 3.0043099634067376e+00 -2.2169255550377578e+00 4.7701532532904434e+00  -6.4452990872199384e-02 1.2313482938056082e+00 2.4181266258811367e+00 1.2313482938056082e+00 3.8798119741419312e-01 -2.7313681231804749e+00 2.4181266258811367e+00 -2.7313681231804749e+00 5.1362450141268887e+00  7.4987234264939251e-01 8.5815805945178936e-01 1.2993857544005802e+00 8.5815805945178936e-01 -2.0949938676637228e-01 -3.3970860234142446e+00 1.2993857544005802e+00 -3.3970860234142446e+00 4.9754959218371093e+00  1.1703958858753996e+00 6.2027893127704148e-01 7.1793210478198777e-01 6.2027893127704148e-01 -7.2569590116622684e-01 -3.6060122951449745e+00 7.1793210478198777e-01 -3.6060122951449745e+00 5.3962469485734195e+00  1.2854765023054551e+00 1.1071757661457014e-02 -6.7530691637066953e-01 1.1071757661457014e-02 -7.0599425560447349e-01 -3.7042466874489501e+00 -6.7530691637066942e-01 -3.7042466874489501e+00 5.4720679833410060e+00  1.2570455212005376e+00 -4.5016104512265259e-01 -1.4474827841963251e+00 -4.5016104512265259e-01 -6.8234705809664720e-01 -3.5155904324932883e+00 -1.4474827841963251e+00 -3.5155904324932883e+00 4.7639462419292355e+00  7.6421506499565206e-01 -9.8275152447918535e-01 -3.2193844694205098e+00 -9.8275152447918535e-01 2.7426036679939203e-01 -2.4175480664155353e+00 -3.2193844694205098e+00 -2.4175480664155353e+00 4.9985057369991299e+00  -1.1418341160996268e-01 -8.1239979186807232e-01 -3.9887606154771937e+00 -8.1239979186807232e-01 7.9185972199557852e-01 -1.1060933151489791e+00 -3.9887606154771937e+00 -1.1060933151489791e+00 5.5666818130021420e+00  1.3834491475817523e+00 5.9119720674816056e-01 6.0433781568969902e-01 5.9119720674816056e-01 -1.0279792429530454e+00 1.1490660140064162e+00 6.0433781568969902e-01 1.1490660140064162e+00 5.0243015504536015e-01  1.2826403530475552e+00 1.1625168044976630e+00 3.9971115211754094e-01 1.1625168044976630e+00 -8.3893501781277302e-01 1.2557996374435711e+00 3.9971115211754094e-01 1.2557996374435711e+00 5.9732565108685032e-01  2.9273890826573107e-01 1.3112608113123543e+00 5.3384796899438184e-03 1.3112608113123543e+00 -1.7295273944703921e-01 1.2977782409941436e+00 5.3384796899438192e-03 1.2977782409941436e+00 6.9200555679259979e-01  -3.0385596902469303e-01 1.4106038629701052e+00 -7.2194054680085307e-01 1.4106038629701052e+00 1.1005073935944867e+00 1.1574341172759814e+00 -7.2194054680085307e-01 1.1574341172759814e+00 2.3193378051407973e-01  -8.7722764697646172e-01 9.1279323619244179e-01 -9.3805118008170529e-01 9.1279323619244135e-01 1.8322574334932469e+00 1.0219261520281551e+00 -9.3805118008170518e-01 1.0219261520281551e+00 1.4205261864296914e-01  -1.1719776763426279e+00 3.0144850975448989e-01 -1.1079090159766496e+00 3.0144850975449039e-01 1.8688969348366931e+00 7.1024740686603427e-01 -1.1079090159766496e+00 7.1024740686603427e-01 3.4080168786522413e-01  -1.0141426379823626e+00 -3.6663517524663897e-01 -1.3655509317589731e+00 -3.6663517524663913e-01 1.7978685676424784e+00 4.1896719464576376e-01 -1.3655509317589731e+00 4.1896719464576376e-01 3.2799102666225777e-01  -5.6488268247970452e-01 -1.2417231508966815e+00 -1.1690377064494881e+00 -1.2417231508966815e+00 1.4990493715567421e+00 1.7792459086617866e-02 -1.1690377064494879e+00 1.7792459086617893e-02 3.4755969485970928e-02  1.0990872511625495e-01 -1.5259126979110516e+00 -1.3460524064499597e+00 -1.5259126979110520e+00 3.6482426770162785e-01 2.7245487795616341e-01 -1.3460524064499599e+00 2.7245487795616341e-01 4.4952700471819540e-01  8.8313495805688180e-01 -5.5214867846355464e-01 -1.3774505256376377e+00 -5.5214867846355453e-01 -1.1258442706758720e+00 -1.6877292970565144e-01 -1.3774505256376379e+00 -1.6877292970565141e-01 7.1762577175500752e-01  2.2946025480173482e+00 -7.8040553693963333e-01 -1.1620560973433343e+00 -7.8040553693963333e-01 -1.5175051473198782e+00 -7.2279701501651128e-01 -1.1620560973433343e+00 -7.2279701501651128e-01 5.6812678765409286e-01  4.0841793817038194e+00 -6.7796324176646316e-01 -1.2461739155759892e+00 -6.7796324176646316e-01 -2.2410967657997576e+00 -1.5945186628172501e+00 -1.2461739155759897e+00 -1.5945186628172501e+00 1.9341865810666674e+00  4.0791975956438948e+00 -4.2495092793125983e-01 -1.1223521160646657e+00 -4.2495092793125983e-01 -1.0793290292443571e+00 -2.6015028480018247e+00 -1.1223521160646657e+00 -2.6015028480018247e+00 1.0359629584633308e+00  3.1284510311653988e+00 -5.1140405805945810e-02 -6.6589786204338886e-01 -5.1140405805945741e-02 -8.8927759662700845e-01 -2.1034735762390309e+00 -6.6589786204338886e-01 -2.1034735762390309e+00 6.1270219267234464e-02  2.5808515846251581e+00 9.6627376001441070e-02 -4.6570880634486517e-01 9.6627376001440848e-02 -1.5172612698649026e+00 -1.3551618984724989e+00 -4.6570880634486517e-01 -1.3551618984724989e+00 4.0758962831714579e-01  2.2816788611319101e+00 -4.2098704912042867e-01 -9.0495287245836042e-01 -4.2098704912042867e-01 -2.0610911150029372e+00 -8.7691489581663562e-01 -9.0495287245836009e-01 -8.7691489581663562e-01 1.6344181272199341e+00  1.7452314619950293e+00 -5.1358402225395394e-01 -6.9591640012020617e-01 -5.1358402225395394e-01 -2.0092241955490273e+00 -4.5668866018309023e-01 -6.9591640012020617e-01 -4.5668866018309023e-01 1.6182805819406025e+00  1.0580864103217249e+00 -6.8113286108068793e-01 -1.4372422878484156e-01 -6.8113286108068816e-01 -1.4293482541042635e+00 5.2376355698242971e-01 -1.4372422878484156e-01 5.2376355698242971e-01 8.9941755607831664e-01  9.6501015088587438e-01 -1.2762079858213022e+00 3.4279046779756191e-02 -1.2762079858213025e+00 -8.7341531807109396e-01 1.8339862786963261e+00 3.4279046779756198e-02 1.8339862786963261e+00 1.4619148286120585e+00  1.2412865942022819e+00 -9.2150804082373572e-01 -4.0786110430410349e-01 -9.2150804082373605e-01 -1.1978021864264941e+00 2.3991071518113909e+00 -4.0786110430410338e-01 2.3991071518113909e+00 2.4302569749855940e+00  5.0930479777102999e-01 2.6041390385992746e-01 -5.6234314921054596e-01 2.6041390385992746e-01 -2.6066555594191498e-01 2.2791791331332414e+00 -5.6234314921054596e-01 2.2791791331332414e+00 6.7660668586203654e-01  5.2556007255271153e-01 1.1224407657932524e-01 -2.0655071890601423e-01 1.1224407657932524e-01 -3.3542522463394431e-01 2.0995218457746461e+00 -2.0655071890601423e-01 2.0995218457746461e+00 4.1645514199190065e-01  6.3183737693476694e-01 -1.6934658108880180e-01 2.5656034514739784e-01 -1.6934658108880180e-01 -4.1949684210195709e-01 2.0528152644875530e+00 2.5656034514739784e-01 2.0528152644875530e+00 4.1071639204849070e-01  7.3393817463736777e-01 -3.9962885141324272e-01 5.9140926873154209e-01 -3.9962885141324272e-01 -2.9723159434667706e-01 1.8294309848236519e+00 5.9140926873154209e-01 1.8294309848236519e+00 2.2594570279504322e-01  5.8344194983510966e-01 -3.5258982922922144e-01 9.4661346220825393e-01 -3.5258982922922144e-01 -2.2263987875362376e-01 1.7148256462957037e+00 9.4661346220825393e-01 1.7148256462957037e+00 1.6605533167789768e-01  9.3459683384426628e-01 -2.2304149697442152e-01 7.4930786476212707e-01 -2.2304149697442152e-01 5.5282740554472111e-02 1.2827398052797958e+00 7.4930786476212707e-01 1.2827398052797956e+00 -7.6795117000706803e-01  1.0305983358580368e+00 -3.6035671995493895e-01 9.8989211981268099e-01 -3.6035671995493895e-01 1.4648159344579625e-01 7.5682601466818133e-01 9.8989211981268088e-01 7.5682601466818133e-01 -8.9755340470021605e-01  4.9216161682853377e-01 -6.7898199980162899e-01 1.4534501817599739e+00 -6.7898199980162899e-01 5.1467128521939276e-01 7.4383424880761595e-01 1.4534501817599739e+00 7.4383424880761595e-01 -3.3468113635946228e-01  5.0521853266817573e-01 -7.3197060496892308e-01 1.3299084953747380e+00 -7.3197060496892308e-01 8.7170276962075000e-01 2.2206184209561536e-01 1.3299084953747380e+00 2.2206184209561536e-01 -8.2829251980603014e-01  2.4848434826734259e-01 -7.1677488795965338e-01 1.4040105501302116e+00 -7.1677488795965327e-01 1.2124222371055824e+00 -5.7897406982844620e-04 1.4040105501302116e+00 -5.7897406982849672e-04 -8.4979503551987823e-01  -1.7779136305373450e-01 -4.0477657371821135e-01 1.3056107741080898e+00 -4.0477657371821152e-01 1.3556282511381630e+00 -3.6090261427233439e-01 1.3056107741080898e+00 -3.6090261427233439e-01 -6.1266558474877053e-01  -2.9441331872160559e-01 9.4130186929631973e-02 1.3343847716616877e+00 9.4130186929631973e-02 1.1198440192783685e+00 -5.6622234375947844e-01 1.3343847716616877e+00 -5.6622234375947844e-01 -2.2227321050498983e-01  1.4407089413594232e-01 1.3960075834013941e-01 8.5951428298447119e-01 1.3960075834013941e-01 1.1870698707547038e+00 -6.9561225384355185e-01 8.5951428298447119e-01 -6.9561225384355185e-01 -9.6439353335556244e-01  3.0948792481939913e-01 -5.7648013758299077e-01 -2.6035536501849249e-01 -5.7648013758299077e-01 1.3673609987808490e+00 -1.0958018150511313e+00 -2.6035536501849249e-01 -1.0958018150511313e+00 -1.3557015946515298e+00  -1.7754099775610080e-01 4.9685923663351056e-01 6.4645049329805904e-01 4.9685923663351056e-01 9.1019693068331786e-01 -9.4240141862289506e-01 6.4645049329805904e-01 -9.4240141862289506e-01 -2.9155743154415514e-01  1.3577745104960772e+00 -6.1196983343674516e-01 8.4886068105824142e-01 -6.1196983343674483e-01 -1.3724354213876853e+00 4.5367774337245592e-01 8.4886068105824142e-01 4.5367774337245592e-01 8.6973174742450099e-01  1.4762921706790659e+00 -6.5495830280358491e-01 8.6101992554283802e-01 -6.5495830280358491e-01 -1.5505852346780429e+00 7.0555028751159981e-04 8.6101992554283791e-01 7.0555028751159981e-04 8.8636140119570639e-01  1.9286752319432992e+00 -1.1712230041527776e+00 1.0023824439285034e+00 -1.1712230041527776e+00 -1.8700949960463300e+00 -1.8290332234595752e-01 1.0023824439285038e+00 -1.8290332234595758e-01 1.5799091355452903e+00  2.6534963950008255e+00 -1.0998183583146994e+00 1.0815030516025002e+00 -1.0998183583146994e+00 -2.2213933910884931e+00 2.3762623179875741e-01 1.0815030516025002e+00 2.3762623179875741e-01 2.0243257026877020e+00  2.4407431681701426e+00 -9.8293575795189292e-01 1.0396236935652330e+00 -9.8293575795189292e-01 -2.1562669150862170e+00 4.4175027228528252e-01 1.0396236935652330e+00 4.4175027228528252e-01 1.9930756273311054e+00  2.1705092420757781e+00 -7.0529984930595135e-01 8.0947823221939530e-01 -7.0529984930595135e-01 -2.2036609772819982e+00 3.7622324080414071e-01 8.0947823221939530e-01 3.7622324080414071e-01 1.9371734345931402e+00  1.5991952978473922e+00 -5.8995824431645660e-01 5.5310077897039189e-01 -5.8995824431645660e-01 -2.0560891950779205e+00 1.6188077966605191e-01 5.5310077897039200e-01 1.6188077966605191e-01 1.8928864935491045e+00  1.0365486793199767e+00 -5.3735336522481891e-01 1.0401956093965223e+00 -5.3735336522481891e-01 -1.7160544894971241e+00 -2.0564079243576561e-01 1.0401956093965223e+00 -2.0564079243576561e-01 1.6680201431219002e+00  7.6409665192820131e-01 -1.7335242718627827e-01 1.2217927827048982e+00 -1.7335242718627827e-01 -4.6087622477288953e-01 -4.1699848563086027e-02 1.2217927827048982e+00 -4.1699848563086027e-02 -1.1759596536596868e-01  2.7472656457539233e+00 9.1867024764665106e-01 -6.6869467361023660e-01 9.1867024764665106e-01 -1.8004361891964049e+00 -1.0752939302030859e+00 -6.6869467361023671e-01 -1.0752939302030859e+00 7.4244871192068407e-01  2.4297583201423487e+00 2.2828695858016732e+00 -1.3224130914955415e-01 2.2828695858016737e+00 -1.0500479489173813e+00 -1.1940987160852687e+00 -1.3224130914955412e-01 -1.1940987160852687e+00 8.2259405436230848e-01  9.1481462565729299e-01 2.5631965892377910e+00 1.6116624716528408e-01 2.5631965892377919e+00 -7.6076976660576723e-02 -1.1562947173587810e+00 1.6116624716528408e-01 -1.1562947173587810e+00 1.0448429051106054e+00  -5.8348977539225777e-01 2.4542064156265608e+00 4.9234020917149257e-01 2.4542064156265608e+00 1.3251435318701332e+00 -1.0628780384765049e+00 4.9234020917149268e-01 -1.0628780384765049e+00 1.2128518416269058e+00  -1.4852726655985300e+00 1.4624720642825606e+00 6.4547073291581791e-01 1.4624720642825606e+00 1.6449527549335670e+00 -1.0536160737607805e+00 6.4547073291581791e-01 -1.0536160737607805e+00 1.3695511830418512e+00  -1.5920416251038370e+00 4.9366486800888665e-01 9.9112550851816628e-01 4.9366486800888665e-01 2.0193505590638292e+00 -7.3775924048202479e-01 9.9112550851816561e-01 -7.3775924048202479e-01 8.2589578914506778e-01  -1.2496320862048103e+00 -5.2137580444638121e-01 1.1599363221630004e+00 -5.2137580444638132e-01 1.6228224446900250e+00 -4.5900649678443844e-01 1.1599363221630004e+00 -4.5900649678443844e-01 5.2201268383787092e-01  -1.2595440112295018e+00 -7.2769339037218250e-01 8.1444132621118093e-01 -7.2769339037218228e-01 1.1236821704530788e+00 -4.4836051111841169e-01 8.1444132621118093e-