<?xml version="1.0"?>
<VTKFile type="UnstructuredGrid"  version="0.1"  >
<UnstructuredGrid>
<Piece  NumberOfPoints="1268" NumberOfCells="4847">
<Points>
<DataArray  type="Float64"  NumberOfComponents="3"  format="ascii">1.994716987487452 0.01317707561264319 -1.202466945460223e-11  1.374072606111497 -0.08614134488653273 -5.388997575085332  -1.285941478930618 0.1916557790035214 -5.691288663606836  -1.59032616235459 -0.4515196446136259 1.626303258728257e-17  0.4950030257755884 2.521650519233041 -5.495391852657774  -0.4107718940653654 -2.429115409112172 -5.58531208084276  -0.9314707163843408 -3.006923447963563 4.87890977618477e-17  1.161824811771535 2.948440156756841 -3.391384395534658e-14  2.146749234505421 0.002696741478414759 -0.5615078450779066  2.330988047973839 -0.000873250973709995 -1.113141311680313  2.540713632977715 -0.1384292375506191 -1.637427654548237  2.645241452520652 -0.2872312815961211 -2.18637082393926  2.504842461151312 -0.2752146673621067 -2.746850782899552  2.287876352721185 -0.2088259978706829 -3.283011632728322  2.137771360922677 -0.2093380261300688 -3.844996501809416  1.970142554575494 -0.2193701374385486 -4.401638277082749  1.701580801829277 -0.1696632515169769 -4.915066532844666  1.398049690886424 0.4419377546899956 -5.387643705321969  1.183972204621215 0.9208338616597355 -5.413149504812257  0.7621482426349403 1.234356207118232 -5.461782499987256  0.2539805730796886 1.370727420898931 -5.519751404145364  -0.2689415860383004 1.319053689498898 -5.578906487138381  -0.7357170559581984 1.076180709179107 -5.631191713357971  -1.086003096318238 0.6812820615514149 -5.669884670156524  -1.65706961757681 -0.5275128747266272 -0.6240725009925172  -1.829082870387909 -0.8347372240299333 -1.153553189134448  -2.030635262011336 -1.097965926806997 -1.693320688638939  -2.148557703924963 -0.9683820133813712 -2.295450526931833  -2.119047321408695 -0.7521727279271558 -2.890676896601294  -1.972500555455803 -0.7106310836492745 -3.509380855831461  -1.885028119342598 -0.4902108162504233 -4.093718100793141  -1.832050776792238 -0.1313823297003599 -4.617858136599065  -1.636180550340053 0.1151199882480144 -5.165527944859976  -1.540434086810702 0.1014447694855235 -7.644826989049428e-17  -1.339902801239663 0.6191128040412099 2.218327606354497e-17  -0.9949589579071262 1.053322092476122 2.12059320661159e-17  -0.5243975458638882 1.346285776146202 7.754217898549941e-16  0.01399251627036286 1.481823287560149 3.252316763596149e-17  0.5696211504784076 1.47677978548424 -7.207855520904863e-17  1.105448032340458 1.331487337928338 1.951563910473908e-16  1.561367740818086 1.018090979386763 -2.179459114756194e-16  1.860006992193919 0.551530302300456 1.369433074745588e-16  -0.152869286718376 2.506583809965366 -5.568804938302105  -0.7781210310064858 2.335338381675429 -5.639249366957451  -1.340550096787874 2.011723800088065 -5.702178028336585  -1.803922993566052 1.555830170950866 -5.753534898075912  -2.144678763029901 1.000979069722826 -5.790734833138769  -2.346903237737564 0.3811866585909049 -5.812061421922149  -2.406990243842066 -0.2684488461825228 -5.817196438260218  -2.318433628103212 -0.9144163570965761 -5.805488779558074  -2.059391262210163 -1.511004864267824 -5.774580158166454  -1.615755841275718 -1.983465489741105 -5.72306417450185  -1.043145925381342 -2.287058241276404 -5.657361969815248  -0.6986882361605687 -2.420627649803484 -5.024556445072709  -0.8272574030199392 -2.685291244074475 -4.476216325063944  -0.8113210073272845 -3.118860027310894 -4.01596683617901  -0.7618552434953355 -3.481598098596065 -3.504026669625047  -0.7509882165597778 -3.609083979854663 -2.886473298216772  -0.7986167670519319 -3.732483084086931 -2.268445488219849  -0.8276969497603353 -3.810997815301134 -1.64593496945388  -0.7425506523451623 -3.557242155569485 -1.078322423839125  -0.7147449622328144 -3.21189056194362 -0.5511080601316157  -1.482234509376526 -2.778582553401298 -5.854479658363816e-16  -1.970737176894139 -2.437284655419533 2.764697292186607e-16  -2.362818572203899 -1.988727212877528 2.439101268600111e-16  -2.642390785384022 -1.462244173776716 5.051059276813266e-16  -2.812149102113852 -0.89052423419162 2.276851973687203e-16  -2.877946727920729 -0.2976446157883296 -1.219909928720168e-16  -2.842947107925845 0.2978601752284433 4.065446096494693e-17  -2.70313036896374 0.8776122116387211 -5.041496169361013e-16  -2.452324348076021 1.418519584933707 4.379274460317988e-16  -2.098265626135573 1.898294456130726 1.951060033519619e-16  -1.658391347368763 2.301023318502569 -1.789574489620802e-16  -1.154148079923361 2.619757341302747 -2.081203863085907e-15  -0.6042202207747882 2.851073703499478 -3.577841418755692e-16  -0.02416138323675775 2.990516581461941 4.065982498622179e-16  0.5710641261211448 3.028216945076794 -1.46882551317968e-16  0.6414151130412097 2.696325287154043 -4.983333021490838  0.771852374565919 2.778456367279237 -4.445188759107248  0.8805845204306011 2.73078881179073 -3.897720120696569  0.9481597620953167 2.69798349057175 -3.343104559074628  0.9815370707090804 2.778214865778854 -2.789250505759619  1.013475345489448 2.861817704396183 -2.235671116027784  1.055849759321274 2.898356228459238 -1.677594140621302  1.093646323460014 2.92793989028903 -1.118725590781912  1.124098871622056 2.957526991478201 -0.5594169689370629  0.2477015793419729 -2.415655802610486 -5.510682951113449  0.8844491790088972 -2.245867158009595 -5.438931443942415  1.464891069119211 -1.932330028996181 -5.373934600293736  1.955087092649627 -1.489613175355717 -5.319502697776375  2.318355026965356 -0.937054784961175 -5.279744576064058  2.524994411863564 -0.307899182343253 -5.257941630215678  2.574632820450045 0.3531084349228537 -5.254020561031156  2.465743861849647 1.006614152640354 -5.268052816559671  2.183897076015212 1.604484044160622 -5.301550147358176  1.722560240631265 2.07491696755195 -5.35506775502591  1.13806318635062 2.378906583716481 -5.422118662603529  1.742182153284979 2.73179858498085 5.854691697147836e-16  2.262480931380501 2.395264875892136 -2.601681534737615e-16  2.698000706832733 1.954727370266727 -3.903113804560263e-16  3.021530388777258 1.426473918441798 1.707421408502106e-16  3.223363606607101 0.8405687193648443 -2.844806418042028e-16  3.305434793487241 0.2261994274297442 -4.472186606099012e-16  3.269241566985055 -0.3926051469820059 3.171555149681837e-16  3.113478077610213 -0.9924495549400153 3.510830505762065e-16  2.840400132149515 -1.548806515270482 -1.707368614952523e-16  2.466120284856568 -2.042983582774378 9.732831365154574e-17  2.008125599488538 -2.460814027017948 -3.577575055983979e-16  1.482521285196868 -2.789563899556613 -4.886146623064541e-17  0.9057866143556688 -3.01678997208197 -2.439392613813594e-16  0.2964958724913082 -3.130681163554852 3.414395345104792e-16  -0.32338307292875 -3.126978161260848 2.926910878106614e-16  -1.29067345658392 -0.3506098753383553 -5.690421630247788  -1.068897680254163 -0.8451623229646739 -5.663999894259847  -0.6782440885714781 -1.219621806060448 -5.6187489875115  -0.168757542531344 -1.390394566692369 -5.560546895724229  0.3611301401510615 -1.294122251639114 -5.500717901478111  0.8191548613516448 -1.005201308695582 -5.449538098373106  1.16817203978903 -0.5892762115769014 -5.411042670828763  1.960898302630318 -0.551652302616722 -8.131516293641286e-17  1.751009740180289 -1.077278642631261 7.445724005953314e-16  1.394016468000002 -1.516729095803803 1.136104663605282e-15  0.9227767039454898 -1.830301465573364 3.434443593283319e-16  0.3780412068884804 -1.984007749105097 8.617772484356591e-16  -0.1885780664025548 -1.977994130030172 2.357202029695971e-16  -0.7327557451871473 -1.821291124380143 1.942410916395698e-17  -1.191068596016128 -1.491774666596192 2.975009434367945e-16  -1.480405544894888 -1.006855825633415 6.954512630084263e-16  -1.812414118534285 0.2561131097252937 -2.664867827914479  2.421751940242729 0.6298287624476981 -1.933377861698098  0.7556418177061754 1.42269463362527 -4.617654324361507  0.003134751711410342 1.574821943356493 -0.9318675177876981  1.015098001669947 1.51699057942374 -0.9441494884276413  0.6193243625380082 1.764115149411371 -1.862230514405671  -0.4757031201037318 1.549728101933577 -1.958273018773558  0.1126459993007786 1.698838152590054 -2.957602797129454  -0.3405660022430232 1.569615851499001 -4.678135257405353  1.818199099779932 0.7365610114574719 -3.763003518505052  -0.9541815370276669 1.23451227632913 -2.875526912859068  -1.269464226480212 1.016489154450913 -4.672047638709048  1.301562892980348 1.557566760682666 -2.802482532053872  -0.7813756340336595 1.414221906310649 -3.725761628685261  -1.58370798409762 0.5643609111372817 -3.581008460136619  -0.988817348255397 1.158392548936659 -1.014254585170146  -1.607700527190565 0.2800106654898483 -1.030081240453645  -1.388203055800784 0.7951310659851955 -1.943712885648593  0.8261955720421881 1.570157055202129 -3.620947225245673  1.681455131778566 1.410849015379531 -1.876189895849114  1.878739160554727 0.943024132521903 -0.9866418074548234  2.103426639579445 1.000735947836943 -2.593434794762663  1.62623803052506 0.6468498306152269 -4.727220189271843  -1.882943490361709 -0.1546739965127431 -1.761716647663214  0.05868355051519467 1.656538949473053 -3.863342338366238  2.465845305360337 0.2632819454094029 -2.663569745038379  1.994842599423799 0.5019775153043848 -0.4779055074204815  2.1671824130763 0.4980244878585698 -1.027636182799239  1.710213566460811 0.9718796190568162 -0.4957578884333736  1.845584590132108 0.2253887364997403 -4.583879812097906  1.579035044615276 0.2924902970866011 -5.101748935835201  1.409777182251665 0.7868327264427526 -5.07202467441607  -1.039178737375989 1.089168173550246 -5.170746090958521  -1.377687418630729 0.6683636420802941 -5.233117919580046  -1.641402128985454 0.4875654733502939 -4.648722230221863  -1.765467255797776 -0.2695484060062747 -1.079683539430899  -1.617858736076732 -0.08318463488274264 -0.5123563299218489  -1.474019211051276 0.4496529111656123 -0.5150171376928306  2.417677350191343 0.3274903893149403 -1.506992657970159 
[...]
<PointData  Tensors="stress"> 
<DataArray  type="Float64"  Name="stress"  NumberOfComponents="9" format="ascii">4.6961451947548855e-01 -1.9966389197155798e-01 -5.0376338539840759e+00 -1.9966389197155798e-01 1.6428204049220674e+00 -4.9543315354586065e-01 -5.0376338539840759e+00 -4.9543315354586065e-01 5.1618786157125021e+00  -1.6979365041920826e+00 8.6089269953275283e-01 2.7216676427436619e+00 8.6089269953275283e-01 8.4601471105532688e+00 -1.5592656339669619e+00 2.7216676427436619e+00 -1.5592656339669619e+00 2.0617787788858473e+00  -9.3567551438553098e-01 1.3508830586481930e+00 -3.2170485244751235e+00 1.3508830586481930e+00 8.2419692601350825e+00 1.7233766688272749e+00 -3.2170485244751235e+00 1.7233766688272747e+00 1.7826887844596231e+00  1.2679371660637931e-01 -7.0703976984123973e-01 4.6733671573959956e+00 -7.0703976984123962e-01 1.5101722700285622e+00 -7.3329335847672217e-01 4.6733671573959956e+00 -7.3329335847672217e-01 5.6129875531893019e+00  1.9654683208191663e+00 -1.7749547456872780e-01 1.0366707582314751e+00 -1.7749547456872780e-01 -1.4234194824913740e+00 9.4322162310741353e-01 1.0366707582314751e+00 9.4322162310741375e-01 6.6282473548487619e-01  3.5612231026405863e+00 -1.2314455759144086e-01 -9.9318704844281425e-01 -1.2314455759144077e-01 -2.2617386105640875e+00 -6.6677073557352429e-01 -9.9318704844281425e-01 -6.6677073557352429e-01 9.2466940137543607e-01  5.3413315288947250e-01 3.3873557916739183e-01 -1.0339549063399338e+00 3.3873557916739172e-01 6.4076543724556206e-02 3.0884218251488891e+00 -1.0339549063399334e+00 3.0884218251488891e+00 1.6001368701476875e+00  2.5310456230807038e-01 5.5897172035828169e-01 1.0753485770308446e+00 5.5897172035828169e-01 1.0267048031504067e+00 -1.3298193274792949e+00 1.0753485770308446e+00 -1.3298193274792949e+00 -5.7386498824843379e-01  -2.2461975155424652e+00 -7.8790881543521529e-01 -2.7715189054925329e+00 -7.8790881543521529e-01 4.6927089446812822e+00 -1.4699829209849680e+00 -2.7715189054925351e+00 -1.4699829209849680e+00 4.3690012247525001e+00  -2.5809723251812438e+00 -1.0299036305466494e+00 -2.2628184821601911e+00 -1.0299036305466494e+00 6.2849816903552131e+00 -1.2156645796434926e+00 -2.2628184821601911e+00 -1.2156645796434926e+00 4.0695718030613142e+00  -3.0303562785040872e+00 -1.9027507713467037e-01 -1.9705097853489775e+00 -1.9027507713467035e-01 6.9374801611415817e+00 -6.8681030570402923e-01 -1.9705097853489770e+00 -6.8681030570402901e-01 4.5799137480114736e+00  -3.3896042230935124e+00 5.0153213551354081e-01 3.9405135874038669e-02 5.0153213551354081e-01 6.8160893184871751e+00 -1.0750365467360437e+00 3.9405135874038662e-02 -1.0750365467360437e+00 5.4575190760918684e+00  -2.5965201124074131e+00 -8.7309197605644567e-02 2.3228827520471889e+00 -8.7309197605644623e-02 7.9621885364958134e+00 -1.3825536892780528e+00 2.3228827520471889e+00 -1.3825536892780528e+00 3.8319799241034485e+00  -2.4411161519915807e+00 -8.8260906245638704e-01 2.0568081004018239e+00 -8.8260906245638704e-01 8.8203517745618036e+00 -4.9278039644976546e-01 2.0568081004018239e+00 -4.9278039644976546e-01 2.6325801231717536e+00  -2.6640780696398449e+00 -3.2106217563823225e-01 1.8110958066204139e+00 -3.2106217563823225e-01 9.0684522634924853e+00 -3.0768961608437595e-01 1.8110958066204139e+00 -3.0768961608437589e-01 2.7582708350865159e+00  -2.3396312823697740e+00 1.0439810704688823e-01 2.3798262648384108e+00 1.0439810704688803e-01 8.6157720505994426e+00 -8.1613851753781830e-01 2.3798262648384108e+00 -8.1613851753781808e-01 2.6491065096509723e+00  -1.4693091580592212e+00 6.0616432301686551e-01 3.1204916397585505e+00 6.0616432301686551e-01 8.4768551400721197e+00 -1.0809814022047985e+00 3.1204916397585505e+00 -1.0809814022047985e+00 2.1615400263745195e+00  -1.1350914745324754e+00 -2.5095243730263754e+00 3.3371403425372836e+00 -2.5095243730263754e+00 7.1655017829514422e+00 -3.1567386616589288e-01 3.3371403425372836e+00 -3.1567386616589294e-01 2.7147784611493346e+00  1.9360143469207305e+00 -5.0329442671195963e+00 2.6602253996162752e+00 -5.0329442671195963e+00 3.8181009636110570e+00 1.0209278153525234e+00 2.6602253996162752e+00 1.0209278153525234e+00 3.0387519197797119e+00  5.5412153064789820e+00 -3.9441455764932716e+00 2.0323334200478813e+00 -3.9441455764932716e+00 -4.4094496455387983e-01 2.0544702021158714e+00 2.0323334200478813e+00 2.0544702021158714e+00 3.4135863208443902e+00  7.1076013099559807e+00 -9.0407006710650939e-01 1.2687360151898004e+00 -9.0407006710650939e-01 -1.9823212126316490e+00 3.0422491647837111e+00 1.2687360151898004e+00 3.0422491647837115e+00 3.5393823487989469e+00  6.6010673812731522e+00 2.2097535228671941e+00 -1.2840828100025689e-01 2.2097535228671941e+00 -1.0649401306047708e+00 3.6757309999198218e+00 -1.2840828100025686e-01 3.6757309999198227e+00 3.3688025726541126e+00  3.9352984752452720e+00 4.2281163177047869e+00 -1.2785151856739874e+00 4.2281163177047869e+00 1.8968736740403289e+00 3.4894352580797445e+00 -1.2785151856739874e+00 3.4894352580797445e+00 2.7668664373948713e+00  9.1338776312927017e-01 3.8603956794062957e+00 -2.3661448154583122e+00 3.8603956794062957e+00 5.4532959181063649e+00 2.8917999436913879e+00 -2.3661448154583122e+00 2.8917999436913884e+00 2.4089766549749458e+00  -2.6370506597680148e+00 -2.2480854262280681e-01 2.4998043501660070e+00 -2.2480854262280681e-01 4.0744113320805164e+00 2.6469245316290840e-01 2.4998043501660074e+00 2.6469245316290846e-01 4.5732070728873682e+00  -2.5688077464468968e+00 -6.3324999004294225e-01 2.2841133705509407e+00 -6.3324999004294225e-01 5.9110591380676087e+00 1.6643406673171129e-01 2.2841133705509407e+00 1.6643406673171135e-01 3.4258988028048623e+00  -2.8926625177784215e+00 -7.1068546134649657e-01 1.9950534775090414e+00 -7.1068546134649657e-01 6.3476696110910638e+00 5.7160968357493969e-01 1.9950534775090414e+00 5.7160968357493969e-01 4.4271247998905112e+00  -3.4173758949370980e+00 -3.7582230691857160e-01 4.0304412623072167e-01 -3.7582230691857166e-01 7.0651633889634988e+00 1.0344594917175363e+00 4.0304412623072178e-01 1.0344594917175363e+00 4.9883347929841477e+00  -3.2584600028007684e+00 2.6940392102785843e-02 -8.9483225216970186e-01 2.6940392102785843e-02 7.7382335677893286e+00 1.7197090987968693e+00 -8.9483225216970186e-01 1.7197090987968693e+00 4.5199153608894269e+00  -2.9015398084763149e+00 -4.8716438126327527e-01 -1.2321581186525823e+00 -4.8716438126327555e-01 8.4129536747209084e+00 1.9953284485134037e+00 -1.2321581186525823e+00 1.9953284485134037e+00 3.4160903465701025e+00  -3.0218336066373164e+00 -3.0304779594880094e-01 -9.5723433099989441e-01 -3.0304779594880088e-01 8.3737348243328409e+00 2.2424630410059083e+00 -9.5723433099989441e-01 2.2424630410059083e+00 3.6494191405132463e+00  -3.0541839825328343e+00 7.8349628155170636e-01 -1.2719003208141058e+00 7.8349628155170625e-01 8.0587484820008708e+00 1.9529869020781212e+00 -1.2719003208141058e+00 1.9529869020781212e+00 4.2444703798477228e+00  -2.1001595748654891e+00 1.1384933032341562e+00 -2.5901915665850068e+00 1.1384933032341562e+00 7.9350450894770903e+00 2.0439991934018038e+00 -2.5901915665850068e+00 2.0439991934018038e+00 3.5066355750357352e+00  -4.0156119352124525e-01 1.4917096954162498e-02 4.4821709346256586e+00 1.4917096954162278e-02 1.7707719884944382e+00 -1.2608598116107541e+00 4.4821709346256586e+00 -1.2608598116107541e+00 6.1330337286250600e+00  -1.0727361525683227e-01 6.3053480662251027e-01 3.7939174089377734e+00 6.3053480662251027e-01 1.3935033611948200e+00 -2.5535112241471798e+00 3.7939174089377734e+00 -2.5535112241471798e+00 6.1007307177244421e+00  3.2998644582297015e-01 1.2255512610888684e+00 3.1280125388308182e+00 1.2255512610888684e+00 8.7034999650906564e-01 -3.2735828891512755e+00 3.1280125388308182e+00 -3.2735828891512755e+00 6.4284787174809930e+00  1.1934202350263714e+00 9.1748689200971667e-01 1.8021180230945144e+00 9.1748689200971667e-01 2.0128549636692003e-01 -4.0836374357728467e+00 1.8021180230945144e+00 -4.0836374357728458e+00 6.4190888625266274e+00  1.6283382091979104e+00 6.4638548899341297e-01 1.0684694185377794e+00 6.4638548899341297e-01 -2.7264627430400379e-01 -4.4180003115252724e+00 1.0684694185377794e+00 -4.4180003115252724e+00 6.7603742429631346e+00  1.7734241820043344e+00 4.9510276347219884e-02 -6.0520109062283178e-01 4.9510276347219884e-02 -2.7962557513233521e-01 -4.5904702845515670e+00 -6.0520109062283178e-01 -4.5904702845515670e+00 6.9483699814182405e+00  1.7447639448733239e+00 -4.0858175060687590e-01 -1.6241965439679384e+00 -4.0858175060687590e-01 -2.0459844552043058e-01 -4.4476111045990745e+00 -1.6241965439679384e+00 -4.4476111045990754e+00 6.0626387307968734e+00  1.2929476305735537e+00 -1.0307088917241063e+00 -3.7043544414945013e+00 -1.0307088917241063e+00 6.9265254322656100e-01 -3.1733694544189550e+00 -3.7043544414945013e+00 -3.1733694544189550e+00 6.5526884593901231e+00  3.3471904811684000e-01 -8.5623391677240979e-01 -4.6868560672240172e+00 -8.5623391677240979e-01 1.2786830581053847e+00 -1.6936558279163545e+00 -4.6868560672240163e+00 -1.6936558279163545e+00 7.1801795228544982e+00  1.7079338256611847e+00 6.6448004406773309e-01 6.3789615288980794e-01 6.6448004406773309e-01 -1.2367456332808651e+00 1.3669157282292046e+00 6.3789615288980794e-01 1.3669157282292042e+00 7.7073421915781171e-01  1.5393549808051872e+00 1.3551540340780843e+00 3.5428000424444495e-01 1.3551540340780843e+00 -9.0751523345560925e-01 1.4620502878273636e+00 3.5428000424444506e-01 1.4620502878273636e+00 7.7033137120025408e-01  4.5268817837363834e-01 1.5556115743184296e+00 -1.2975583849667943e-01 1.5556115743184296e+00 -1.3704582002406329e-01 1.5478755050694131e+00 -1.2975583849667943e-01 1.5478755050694133e+00 8.7980102605217569e-01  -1.8963416175104714e-01 1.7038248937197291e+00 -8.2477138485052992e-01 1.7038248937197291e+00 1.2643199173988606e+00 1.3879662601517100e+00 -8.2477138485052992e-01 1.3879662601517100e+00 4.0491735400809747e-01  -8.8463667188674189e-01 1.1006137226729895e+00 -1.1434721424789491e+00 1.1006137226729895e+00 2.0944944352695871e+00 1.2458376778071956e+00 -1.1434721424789491e+00 1.2458376778071953e+00 3.2492407974425219e-01  -1.3071124780399257e+00 3.5686172164757579e-01 -1.3661005855447694e+00 3.5686172164757596e-01 2.2329460939890868e+00 8.8881461204638479e-01 -1.3661005855447694e+00 8.8881461204638479e-01 5.8307971248800061e-01  -1.1177778394049722e+00 -4.3516117548502126e-01 -1.6877308674208180e+00 -4.3516117548502148e-01 2.2131104244982329e+00 5.5264526268009173e-01 -1.6877308674208180e+00 5.5264526268009173e-01 5.6025256866428896e-01  -5.7511194105540753e-01 -1.4390374963311177e+00 -1.4498000239641238e+00 -1.4390374963311174e+00 1.7281600740100009e+00 3.1490029141279068e-02 -1.4498000239641240e+00 3.1490029141279116e-02 1.9325355240040593e-01  3.5665134293855927e-01 -1.8467805207137082e+00 -1.5936476815867235e+00 -1.8467805207137082e+00 3.8930622200607401e-01 2.0531872235905849e-01 -1.5936476815867235e+00 2.0531872235905846e-01 5.8563474170770857e-01  1.0578467201542916e+00 -7.5837325780735354e-01 -1.5112639340268605e+00 -7.5837325780735354e-01 -1.2387271736297156e+00 -3.7573838276300009e-01 -1.5112639340268601e+00 -3.7573838276299998e-01 9.1774825931944548e-01  2.6712216870896670e+00 -1.0999450234064529e+00 -1.2122538684807329e+00 -1.0999450234064527e+00 -1.6858727294784333e+00 -8.0643903520712557e-01 -1.2122538684807329e+00 -8.0643903520712557e-01 8.0412588168173771e-01  4.7358620955118313e+00 -7.7665134246435175e-01 -1.3793658929639774e+00 -7.7665134246435175e-01 -2.3126269530094503e+00 -1.8291084501159731e+00 -1.3793658929639774e+00 -1.8291084501159731e+00 2.3559303840261268e+00  4.7176773972977237e+00 -5.2138978124163682e-01 -1.2248316475116516e+00 -5.2138978124163671e-01 -1.0063183254789962e+00 -2.9103476185066164e+00 -1.2248316475116516e+00 -2.9103476185066164e+00 1.3493863040694605e+00  3.6948327783806736e+00 -1.1014442627249478e-01 -7.0942577396988260e-01 -1.1014442627249478e-01 -8.8892594400274294e-01 -2.4273931765868793e+00 -7.0942577396988282e-01 -2.4273931765868793e+00 2.4554572923368534e-01  3.0538795868949862e+00 5.5241381425223883e-02 -5.4513541039151625e-01 5.5241381425223883e-02 -1.6972150722565897e+00 -1.6241552399049681e+00 -5.4513541039151603e-01 -1.6241552399049681e+00 7.0394031624902353e-01  2.7271086244670935e+00 -5.4301685411895839e-01 -9.5488815193630217e-01 -5.4301685411895839e-01 -2.2926338236644366e+00 -1.0234494258185471e+00 -9.5488815193630183e-01 -1.0234494258185474e+00 2.0877225005180580e+00  2.1228882130672071e+00 -5.8920007830556942e-01 -7.6086389010277788e-01 -5.8920007830556942e-01 -2.3079717254965080e+00 -5.2839429305160357e-01 -7.6086389010277788e-01 -5.2839429305160357e-01 2.1451544987089144e+00  1.3159025365033119e+00 -8.6010789213609562e-01 -1.4313773600662930e-01 -8.6010789213609562e-01 -1.6844130755569777e+00 6.8152591421013498e-01 -1.4313773600662930e-01 6.8152591421013509e-01 1.2591218082782105e+00  1.2896209686736761e+00 -1.4161840135648787e+00 -7.9340902749595703e-03 -1.4161840135648787e+00 -1.0361338284302597e+00 2.1470471874036909e+00 -7.9340902749595772e-03 2.1470471874036909e+00 1.9659499058648253e+00  1.5300540001655785e+00 -1.0991084095344368e+00 -3.2858355020305124e-01 -1.0991084095344368e+00 -1.2194932831036491e+00 2.7879438451258971e+00 -3.2858355020305130e-01 2.7879438451258971e+00 3.0654226032015717e+00  5.6911225490037476e-01 2.3703151421322269e-01 -4.5522853011705605e-01 2.3703151421322269e-01 -1.4796087801011235e-01 2.9251038051467808e+00 -4.5522853011705605e-01 2.9251038051467808e+00 1.1691925496478086e+00  5.7986444594404518e-01 8.1649165449990416e-02 -2.5935449891282446e-02 8.1649165449990416e-02 -2.6727205474028032e-01 2.6891381506754954e+00 -2.5935449891282446e-02 2.6891381506754954e+00 8.3175701456646911e-01  6.9011837530566855e-01 -1.8275971924346959e-01 5.5727168417772133e-01 -1.8275971924346959e-01 -3.4604647450434706e-01 2.6041370739197727e+00 5.5727168417772133e-01 2.6041370739197727e+00 8.3392548445323289e-01  8.0356733872083441e-01 -4.2998387127203769e-01 9.2569568904731048e-01 -4.2998387127203769e-01 -2.0602197803200764e-01 2.3189947616765001e+00 9.2569568904731048e-01 2.3189947616765005e+00 5.6969707664796054e-01  6.3050215094817874e-01 -3.7635929656014655e-01 1.3637544514397650e+00 -3.7635929656014655e-01 -1.5904194857077672e-01 2.0877762451474595e+00 1.3637544514397650e+00 2.0877762451474595e+00 4.8977643646209013e-01  1.0242172520666615e+00 -2.5189111068357944e-01 1.1662725759780779e+00 -2.5189111068357944e-01 1.0143966602876621e-01 1.5582869820417631e+00 1.1662725759780781e+00 1.5582869820417626e+00 -6.7340041409338525e-01  1.1133794980337530e+00 -3.8063346490994232e-01 1.4319634163330854e+00 -3.8063346490994232e-01 2.0403926203358266e-01 9.1174664980944031e-01 1.4319634163330854e+00 9.1174664980944031e-01 -8.4428442017689653e-01  5.9493870955213757e-01 -7.4893718967561207e-01 1.9697820156020349e+00 -7.4893718967561218e-01 6.1760091824960928e-01 7.7750121276506912e-01 1.9697820156020349e+00 7.7750121276506912e-01 -1.6676128713846883e-01  6.5257655390889047e-01 -7.9554487191620848e-01 1.7935480201386342e+00 -7.9554487191620904e-01 9.9146309505506103e-01 1.5718367896454327e-01 1.7935480201386342e+00 1.5718367896454327e-01 -8.2871274215509960e-01  3.8567807470048354e-01 -7.9616934307507903e-01 1.8520275445178982e+00 -7.9616934307507903e-01 1.3490134948179797e+00 -1.2344623128188113e-01 1.8520275445178982e+00 -1.2344623128188113e-01 -8.4972586006622675e-01  -1.3534244077231769e-01 -4.5950773203230461e-01 1.7091396846809985e+00 -4.5950773203230461e-01 1.5355638803638341e+00 -6.2153443603235847e-01 1.7091396846809985e+00 -6.2153443603235847e-01 -5.4700234107228007e-01  -2.7799463129105073e-01 1.1784685363056355e-01 1.6937788467214507e+00 1.1784685363056355e-01 1.3302693902651381e+00 -9.0268916421721812e-01 1.6937788467214507e+00 -9.0268916421721812e-01 -6.9519954643742443e-02  2.0362410287937505e-01 1.7512986477862882e-01 1.0825673125913051e+00 1.7512986477862882e-01 1.4157359021245175e+00 -1.0335268475626340e+00 1.0825673125913053e+00 -1.0335268475626340e+00 -1.0093090471119008e+00  3.3760034376401937e-01 -6.4800139931463696e-01 -2.4142847375750429e-01 -6.4800139931463696e-01 1.6448620439701127e+00 -1.4708422070930947e+00 -2.4142847375750445e-01 -1.4708422070930947e+00 -1.4932802112993122e+00  -1.7646330163132895e-01 5.3064121906441997e-01 8.1300282651212363e-01 5.3064121906441997e-01 1.0680020590302732e+00 -1.3465278912145164e+00 8.1300282651212363e-01 -1.3465278912145164e+00 -1.7283337679997524e-01  1.7621457001014829e+00 -7.3579980341562379e-01 8.6461337370818359e-01 -7.3579980341562379e-01 -1.6274560357103693e+00 6.2873523639104500e-01 8.6461337370818359e-01 6.2873523639104500e-01 1.1285931620541012e+00  1.7885829974232146e+00 -7.9847204967275309e-01 1.0028738736742642e+00 -7.9847204967275343e-01 -1.8268373147712076e+00 3.7452573066984865e-02 1.0028738736742642e+00 3.7452573066984865e-02 1.2669595790416646e+00  2.3395789578409794e+00 -1.3033225087769651e+00 1.0660183411149224e+00 -1.3033225087769651e+00 -2.1145482646171656e+00 -1.3897960816545923e-01 1.0660183411149224e+00 -1.3897960816545923e-01 1.9785685702676614e+00  3.1607603351550764e+00 -1.2858193511162468e+00 1.1719473798298461e+00 -1.2858193511162466e+00 -2.4064168771110261e+00 2.8750093260912485e-01 1.1719473798298461e+00 2.8750093260912485e-01 2.5046848089316720e+00  2.8968100399026864e+00 -1.1119307299171739e+00 1.1279656554296316e+00 -1.1119307299171737e+00 -2.3597893067128597e+00 5.3089470551885998e-01 1.1279656554296318e+00 5.3089470551885976e-01 2.4774634650716538e+00  2.6111262144669412e+00 -8.3927893834476486e-01 8.7031193875507251e-01 -8.3927893834476486e-01 -2.4421434902510519e+00 4.3884115394058471e-01 8.7031193875507251e-01 4.3884115394058465e-01 2.4412061565247356e+00  1.9700069707583461e+00 -6.9697612158366662e-01 6.5880751566478424e-01 -6.9697612158366662e-01 -2.3523044948414724e+00 1.9297519222638840e-01 6.5880751566478424e-01 1.9297519222638840e-01 2.5138295215809698e+00  1.3588304121995343e+00 -6.5015011506901499e-01 1.2047652717962067e+00 -6.5015011506901499e-01 -2.0853609320984590e+00 -1.9416482722898259e-01 1.2047652717962067e+00 -1.9416482722898259e-01 2.3600321057912197e+00  8.7023558615007068e-01 -3.1590682150337862e-01 1.3454755628652666e+00 -3.1590682150337862e-01 -7.4973579952790825e-01 -1.0008779171039339e-01 1.3454755628652666e+00 -1.0008779171039339e-01 9.2007356966139098e-02  3.2543390483261341e+00 9.9233459210037556e-01 -7.0804158168981168e-01 9.9233459210037556e-01 -2.0329005379186529e+00 -1.2904235071103889e+00 -7.0804158168981157e-01 -1.2904235071103889e+00 1.0948457851239486e+00  2.8784227246814891e+00 2.4987469944053404e+00 -2.1774722120395046e-01 2.4987469944053404e+00 -1.2242667263246139e+00 -1.4088546687534227e+00 -2.1774722120395054e-01 -1.4088546687534227e+00 1.1975772495257204e+00  1.1779316645578712e+00 2.9096125744208976e+00 2.2228719550651982e-01 2.9096125744208980e+00 -8.9049166929961898e-02 -1.3816022278169693e+00 2.2228719550651982e-01 -1.3816022278169693e+00 1.5024486838413640e+00  -4.9753163173089993e-01 2.8343490028922651e+00 5.4968438017314603e-01 2.8343490028922647e+00 1.5750897804952675e+00 -1.2919577744855872e+00 5.4968438017314603e-01 -1.2919577744855872e+00 1.5884677632936985e+00  -1.5993926019595699e+00 1.7147337640265223e+00 8.4698646926983900e-01 1.7147337640265223e+00 2.0161807176234179e+00 -1.2622620677470890e+00 8.4698646926983900e-01 -1.2622620677470890e+00 1.7759968104927204e+00  -1.8229070574659281e+00 6.1358570328069051e-01 1.2422158183247336e+00 6.1358570328069051e-01 2.5135032383270484e+00 -9.1951942437264877e-01 1.2422158183247336e+00 -9.1951942437264877e-01 1.2595665075711131e+00  -1.4548825025453880e+00 -6.3783035936651866e-01 1.4866808167821424e+00 -6.3783035936651866e-01 2.0490322521945683e+00 -5.5043376334268779e-01 1.4866808167821424e+00 -5.5043376334268790e-01 8.6013109878020966e-01  -1.4500709692203917e+00 -9.4786723291715891e-01 1.1744832378326580e+00 -9.4786723291715891e-01 1.4422595337003088e+00 -4.8907176477562436e-01 1.1744832378326580e+00 -4