<?xml version="1.0"?>
<VTKFile type="UnstructuredGrid"  version="0.1"  >
<UnstructuredGrid>
<Piece  NumberOfPoints="1268" NumberOfCells="4847">
<Points>
<DataArray  type="Float64"  NumberOfComponents="3"  format="ascii">1.994716987487452 0.01317707561264319 -1.202466945460223e-11  1.374072606111497 -0.08614134488653273 -5.388997575085332  -1.285941478930618 0.1916557790035214 -5.691288663606836  -1.59032616235459 -0.4515196446136259 1.626303258728257e-17  0.4950030257755884 2.521650519233041 -5.495391852657774  -0.4107718940653654 -2.429115409112172 -5.58531208084276  -0.9314707163843408 -3.006923447963563 4.87890977618477e-17  1.161824811771535 2.948440156756841 -3.391384395534658e-14  2.146749234505421 0.002696741478414759 -0.5615078450779066  2.330988047973839 -0.000873250973709995 -1.113141311680313  2.540713632977715 -0.1384292375506191 -1.637427654548237  2.645241452520652 -0.2872312815961211 -2.18637082393926  2.504842461151312 -0.2752146673621067 -2.746850782899552  2.287876352721185 -0.2088259978706829 -3.283011632728322  2.137771360922677 -0.2093380261300688 -3.844996501809416  1.970142554575494 -0.2193701374385486 -4.401638277082749  1.701580801829277 -0.1696632515169769 -4.915066532844666  1.398049690886424 0.4419377546899956 -5.387643705321969  1.183972204621215 0.9208338616597355 -5.413149504812257  0.7621482426349403 1.234356207118232 -5.461782499987256  0.2539805730796886 1.370727420898931 -5.519751404145364  -0.2689415860383004 1.319053689498898 -5.578906487138381  -0.7357170559581984 1.076180709179107 -5.631191713357971  -1.086003096318238 0.6812820615514149 -5.669884670156524  -1.65706961757681 -0.5275128747266272 -0.6240725009925172  -1.829082870387909 -0.8347372240299333 -1.153553189134448  -2.030635262011336 -1.097965926806997 -1.693320688638939  -2.148557703924963 -0.9683820133813712 -2.295450526931833  -2.119047321408695 -0.7521727279271558 -2.890676896601294  -1.972500555455803 -0.7106310836492745 -3.509380855831461  -1.885028119342598 -0.4902108162504233 -4.093718100793141  -1.832050776792238 -0.1313823297003599 -4.617858136599065  -1.636180550340053 0.1151199882480144 -5.165527944859976  -1.540434086810702 0.1014447694855235 -7.644826989049428e-17  -1.339902801239663 0.6191128040412099 2.218327606354497e-17  -0.9949589579071262 1.053322092476122 2.12059320661159e-17  -0.5243975458638882 1.346285776146202 7.754217898549941e-16  0.01399251627036286 1.481823287560149 3.252316763596149e-17  0.5696211504784076 1.47677978548424 -7.207855520904863e-17  1.105448032340458 1.331487337928338 1.951563910473908e-16  1.561367740818086 1.018090979386763 -2.179459114756194e-16  1.860006992193919 0.551530302300456 1.369433074745588e-16  -0.152869286718376 2.506583809965366 -5.568804938302105  -0.7781210310064858 2.335338381675429 -5.639249366957451  -1.340550096787874 2.011723800088065 -5.702178028336585  -1.803922993566052 1.555830170950866 -5.753534898075912  -2.144678763029901 1.000979069722826 -5.790734833138769  -2.346903237737564 0.3811866585909049 -5.812061421922149  -2.406990243842066 -0.2684488461825228 -5.817196438260218  -2.318433628103212 -0.9144163570965761 -5.805488779558074  -2.059391262210163 -1.511004864267824 -5.774580158166454  -1.615755841275718 -1.983465489741105 -5.72306417450185  -1.043145925381342 -2.287058241276404 -5.657361969815248  -0.6986882361605687 -2.420627649803484 -5.024556445072709  -0.8272574030199392 -2.685291244074475 -4.476216325063944  -0.8113210073272845 -3.118860027310894 -4.01596683617901  -0.7618552434953355 -3.481598098596065 -3.504026669625047  -0.7509882165597778 -3.609083979854663 -2.886473298216772  -0.7986167670519319 -3.732483084086931 -2.268445488219849  -0.8276969497603353 -3.810997815301134 -1.64593496945388  -0.7425506523451623 -3.557242155569485 -1.078322423839125  -0.7147449622328144 -3.21189056194362 -0.5511080601316157  -1.482234509376526 -2.778582553401298 -5.854479658363816e-16  -1.970737176894139 -2.437284655419533 2.764697292186607e-16  -2.362818572203899 -1.988727212877528 2.439101268600111e-16  -2.642390785384022 -1.462244173776716 5.051059276813266e-16  -2.812149102113852 -0.89052423419162 2.276851973687203e-16  -2.877946727920729 -0.2976446157883296 -1.219909928720168e-16  -2.842947107925845 0.2978601752284433 4.065446096494693e-17  -2.70313036896374 0.8776122116387211 -5.041496169361013e-16  -2.452324348076021 1.418519584933707 4.379274460317988e-16  -2.098265626135573 1.898294456130726 1.951060033519619e-16  -1.658391347368763 2.301023318502569 -1.789574489620802e-16  -1.154148079923361 2.619757341302747 -2.081203863085907e-15  -0.6042202207747882 2.851073703499478 -3.577841418755692e-16  -0.02416138323675775 2.990516581461941 4.065982498622179e-16  0.5710641261211448 3.028216945076794 -1.46882551317968e-16  0.6414151130412097 2.696325287154043 -4.983333021490838  0.771852374565919 2.778456367279237 -4.445188759107248  0.8805845204306011 2.73078881179073 -3.897720120696569  0.9481597620953167 2.69798349057175 -3.343104559074628  0.9815370707090804 2.778214865778854 -2.789250505759619  1.013475345489448 2.861817704396183 -2.235671116027784  1.055849759321274 2.898356228459238 -1.677594140621302  1.093646323460014 2.92793989028903 -1.118725590781912  1.124098871622056 2.957526991478201 -0.5594169689370629  0.2477015793419729 -2.415655802610486 -5.510682951113449  0.8844491790088972 -2.245867158009595 -5.438931443942415  1.464891069119211 -1.932330028996181 -5.373934600293736  1.955087092649627 -1.489613175355717 -5.319502697776375  2.318355026965356 -0.937054784961175 -5.279744576064058  2.524994411863564 -0.307899182343253 -5.257941630215678  2.574632820450045 0.3531084349228537 -5.254020561031156  2.465743861849647 1.006614152640354 -5.268052816559671  2.183897076015212 1.604484044160622 -5.301550147358176  1.722560240631265 2.07491696755195 -5.35506775502591  1.13806318635062 2.378906583716481 -5.422118662603529  1.742182153284979 2.73179858498085 5.854691697147836e-16  2.262480931380501 2.395264875892136 -2.601681534737615e-16  2.698000706832733 1.954727370266727 -3.903113804560263e-16  3.021530388777258 1.426473918441798 1.707421408502106e-16  3.223363606607101 0.8405687193648443 -2.844806418042028e-16  3.305434793487241 0.2261994274297442 -4.472186606099012e-16  3.269241566985055 -0.3926051469820059 3.171555149681837e-16  3.113478077610213 -0.9924495549400153 3.510830505762065e-16  2.840400132149515 -1.548806515270482 -1.707368614952523e-16  2.466120284856568 -2.042983582774378 9.732831365154574e-17  2.008125599488538 -2.460814027017948 -3.577575055983979e-16  1.482521285196868 -2.789563899556613 -4.886146623064541e-17  0.9057866143556688 -3.01678997208197 -2.439392613813594e-16  0.2964958724913082 -3.130681163554852 3.414395345104792e-16  -0.32338307292875 -3.126978161260848 2.926910878106614e-16  -1.29067345658392 -0.3506098753383553 -5.690421630247788  -1.068897680254163 -0.8451623229646739 -5.663999894259847  -0.6782440885714781 -1.219621806060448 -5.6187489875115  -0.168757542531344 -1.390394566692369 -5.560546895724229  0.3611301401510615 -1.294122251639114 -5.500717901478111  0.8191548613516448 -1.005201308695582 -5.449538098373106  1.16817203978903 -0.5892762115769014 -5.411042670828763  1.960898302630318 -0.551652302616722 -8.131516293641286e-17  1.751009740180289 -1.077278642631261 7.445724005953314e-16  1.394016468000002 -1.516729095803803 1.136104663605282e-15  0.9227767039454898 -1.830301465573364 3.434443593283319e-16  0.3780412068884804 -1.984007749105097 8.617772484356591e-16  -0.1885780664025548 -1.977994130030172 2.357202029695971e-16  -0.7327557451871473 -1.821291124380143 1.942410916395698e-17  -1.191068596016128 -1.491774666596192 2.975009434367945e-16  -1.480405544894888 -1.006855825633415 6.954512630084263e-16  -1.812414118534285 0.2561131097252937 -2.664867827914479  2.421751940242729 0.6298287624476981 -1.933377861698098  0.7556418177061754 1.42269463362527 -4.617654324361507  0.003134751711410342 1.574821943356493 -0.9318675177876981  1.015098001669947 1.51699057942374 -0.9441494884276413  0.6193243625380082 1.764115149411371 -1.862230514405671  -0.4757031201037318 1.549728101933577 -1.958273018773558  0.1126459993007786 1.698838152590054 -2.957602797129454  -0.3405660022430232 1.569615851499001 -4.678135257405353  1.818199099779932 0.7365610114574719 -3.763003518505052  -0.9541815370276669 1.23451227632913 -2.875526912859068  -1.269464226480212 1.016489154450913 -4.672047638709048  1.301562892980348 1.557566760682666 -2.802482532053872  -0.7813756340336595 1.414221906310649 -3.725761628685261  -1.58370798409762 0.5643609111372817 -3.581008460136619  -0.988817348255397 1.158392548936659 -1.014254585170146  -1.607700527190565 0.2800106654898483 -1.030081240453645  -1.388203055800784 0.7951310659851955 -1.943712885648593  0.8261955720421881 1.570157055202129 -3.620947225245673  1.681455131778566 1.410849015379531 -1.876189895849114  1.878739160554727 0.943024132521903 -0.9866418074548234  2.103426639579445 1.000735947836943 -2.593434794762663  1.62623803052506 0.6468498306152269 -4.727220189271843  -1.882943490361709 -0.1546739965127431 -1.761716647663214  0.05868355051519467 1.656538949473053 -3.863342338366238  2.465845305360337 0.2632819454094029 -2.663569745038379  1.994842599423799 0.5019775153043848 -0.4779055074204815  2.1671824130763 0.4980244878585698 -1.027636182799239  1.710213566460811 0.9718796190568162 -0.4957578884333736  1.845584590132108 0.2253887364997403 -4.583879812097906  1.579035044615276 0.2924902970866011 -5.101748935835201  1.409777182251665 0.7868327264427526 -5.07202467441607  -1.039178737375989 1.089168173550246 -5.170746090958521  -1.377687418630729 0.6683636420802941 -5.233117919580046  -1.641402128985454 0.4875654733502939 -4.648722230221863  -1.765467255797776 -0.2695484060062747 -1.079683539430899  -1.617858736076732 -0.08318463488274264 -0.5123563299218489  -1.474019211051276 0.4496529111656123 -0.5150171376928306  2.417677350191343 0.3274903893149403 -1.506992657970159 
[...]
<PointData  Tensors="stress"> 
<DataArray  type="Float64"  Name="stress"  NumberOfComponents="9" format="ascii">6.5531370756749019e-01 -2.0035722929145303e-01 -5.3297666267190280e+00 -2.0035722929145303e-01 1.8180806305757056e+00 -6.1023356812435203e-01 -5.3297666267190280e+00 -6.1023356812435203e-01 5.6035107019876955e+00  -1.6506599302172040e+00 9.1336368719486538e-01 2.8218552000613291e+00 9.1336368719486560e-01 8.9675925951383313e+00 -1.6051421307517393e+00 2.8218552000613291e+00 -1.6051421307517393e+00 2.2865357835339157e+00  -8.3795119939806961e-01 1.4266579621451632e+00 -3.3536748978419975e+00 1.4266579621451629e+00 8.6910111454384680e+00 1.7912431610083930e+00 -3.3536748978419975e+00 1.7912431610083928e+00 2.0202551243278966e+00  2.8106064985581908e-01 -7.2498427896667195e-01 4.9565103611504542e+00 -7.2498427896667195e-01 1.6702252587205477e+00 -6.7776995976584731e-01 4.9565103611504542e+00 -6.7776995976584731e-01 6.0836943035205531e+00  2.0720122574290816e+00 -1.8892167834486459e-01 1.0919064058161074e+00 -1.8892167834486448e-01 -1.4749435371643811e+00 1.0253852653920537e+00 1.0919064058161074e+00 1.0253852653920537e+00 7.5648944846774369e-01  3.7139766052242265e+00 -1.3224869759061256e-01 -1.0252062321291469e+00 -1.3224869759061256e-01 -2.3467357293223645e+00 -7.0665860431388339e-01 -1.0252062321291469e+00 -7.0665860431388317e-01 1.0443592926198222e+00  5.6193922718562694e-01 3.0638499949669529e-01 -1.0175271325436761e+00 3.0638499949669540e-01 1.2489166261193743e-01 3.3033486198640820e+00 -1.0175271325436761e+00 3.3033486198640820e+00 1.8150566441473182e+00  2.7836441337394396e-01 5.7245711578865544e-01 1.1178621425818192e+00 5.7245711578865544e-01 1.0692516403833561e+00 -1.4636327632994566e+00 1.1178621425818192e+00 -1.4636327632994566e+00 -5.5427810833638225e-01  -2.1706587863227083e+00 -8.2411502727602171e-01 -2.9566864749304202e+00 -8.2411502727602171e-01 5.0294081857355950e+00 -1.5506505648507616e+00 -2.9566864749304216e+00 -1.5506505648507616e+00 4.6883102716375129e+00  -2.5407447058493209e+00 -1.0939195167977833e+00 -2.3862473150996855e+00 -1.0939195167977833e+00 6.7015762843681888e+00 -1.2580585673047802e+00 -2.3862473150996855e+00 -1.2580585673047802e+00 4.3751606396051583e+00  -3.0110740206904403e+00 -1.9865726530564398e-01 -2.0717327365120539e+00 -1.9865726530564404e-01 7.3548734882521218e+00 -7.0245340981898441e-01 -2.0717327365120539e+00 -7.0245340981898430e-01 4.9111869991955892e+00  -3.3873229199227164e+00 5.2048691514448697e-01 3.7185512900417397e-02 5.2048691514448697e-01 7.2180204521455735e+00 -1.0992249885994450e+00 3.7185512900417397e-02 -1.0992249885994450e+00 5.8215059937222060e+00  -2.5636690884410123e+00 -8.7268876703138820e-02 2.4309577644368350e+00 -8.7268876703139014e-02 8.3896557203756430e+00 -1.4189393033923783e+00 2.4309577644368350e+00 -1.4189393033923783e+00 4.1434426897919998e+00  -2.4121009200975161e+00 -9.0332498515468895e-01 2.1545425312617974e+00 -9.0332498515468895e-01 9.2953947715522443e+00 -5.0798643846003488e-01 2.1545425312617974e+00 -5.0798643846003488e-01 2.9001124377053817e+00  -2.6448482977201442e+00 -3.1992345818124285e-01 1.8939421573311654e+00 -3.1992345818124285e-01 9.5450262522449503e+00 -3.1618693141655047e-01 1.8939421573311654e+00 -3.1618693141655047e-01 3.0327042481605835e+00  -2.3071239901087943e+00 1.2788473185961349e-01 2.4860111380708991e+00 1.2788473185961335e-01 9.0600301492550930e+00 -8.3677376834969142e-01 2.4860111380708996e+00 -8.3677376834969142e-01 2.9134502452769451e+00  -1.3929324742473723e+00 6.5120370689058193e-01 3.2457500692142096e+00 6.5120370689058182e-01 8.9408690596567819e+00 -1.1138187372606227e+00 3.2457500692142096e+00 -1.1138187372606227e+00 2.3801800639942625e+00  -1.0604777440101263e+00 -2.5970775011519627e+00 3.4634805762213619e+00 -2.5970775011519627e+00 7.5998514220097793e+00 -3.1273751356993806e-01 3.4634805762213619e+00 -3.1273751356993806e-01 2.9590604162378136e+00  2.1437186595852031e+00 -5.2309832795999425e+00 2.7606608551909089e+00 -5.2309832795999425e+00 4.0953128371103054e+00 1.0779937742711398e+00 2.7606608551909093e+00 1.0779937742711398e+00 3.3139733733439645e+00  5.9089150286941363e+00 -4.1170039718221734e+00 2.1083578722842033e+00 -4.1170039718221734e+00 -3.1008230956992694e-01 2.1651279041858587e+00 2.1083578722842033e+00 2.1651279041858587e+00 3.7260718718234704e+00  7.5413018127443241e+00 -9.5451700792416661e-01 1.3112930602336030e+00 -9.5451700792416661e-01 -1.9218080990385569e+00 3.1787045413605743e+00 1.3112930602336030e+00 3.1787045413605743e+00 3.8488765137015348e+00  7.0144504750825440e+00 2.2989091195338798e+00 -1.3876279744050357e-01 2.2989091195338793e+00 -9.5950398523436897e-01 3.8296749838884776e+00 -1.3876279744050354e-01 3.8296749838884776e+00 3.6503333081619163e+00  4.2618084753521970e+00 4.4086552210039409e+00 -1.3594535537413899e+00 4.4086552210039409e+00 2.0927811738970838e+00 3.6262089349767561e+00 -1.3594535537413899e+00 3.6262089349767561e+00 3.0644684865713816e+00  1.1276377924861463e+00 4.0332165879480320e+00 -2.4837935756465193e+00 4.0332165879480320e+00 5.7906779748091397e+00 3.0058130807950318e+00 -2.4837935756465193e+00 3.0058130807950318e+00 2.6570040932157850e+00  -2.5957091877760572e+00 -2.7770450757953613e-01 2.6946130041688288e+00 -2.7770450757953613e-01 4.3937348340487468e+00 2.7784880254747596e-01 2.6946130041688288e+00 2.7784880254747590e-01 4.9145217732779996e+00  -2.5337611974254290e+00 -6.9917250440388146e-01 2.4352033742271133e+00 -6.9917250440388146e-01 6.3042473729198489e+00 1.8104221715162686e-01 2.4352033742271133e+00 1.8104221715162677e-01 3.7268619111573518e+00  -2.8626569364539298e+00 -7.4748299218095848e-01 2.1306749268000140e+00 -7.4748299218095848e-01 6.7511497897030788e+00 5.9393554151465855e-01 2.1306749268000140e+00 5.9393554151465833e-01 4.7532292981757598e+00  -3.4215649214660608e+00 -3.6334784189848141e-01 4.3160560292515476e-01 -3.6334784189848141e-01 7.4903681354038838e+00 1.0757881446649935e+00 4.3160560292515482e-01 1.0757881446649933e+00 5.3426994742408169e+00  -3.2602427856896101e+00 5.0753674902914936e-02 -9.2681991600349101e-01 5.0753674902915276e-02 8.1858955173010450e+00 1.7787131569062793e+00 -9.2681991600349101e-01 1.7787131569062793e+00 4.8528475794237602e+00  -2.9014751205404092e+00 -4.7301504353554014e-01 -1.2780425863117169e+00 -4.7301504353554025e-01 8.8800853679876219e+00 2.0765827845541431e+00 -1.2780425863117169e+00 2.0765827845541431e+00 3.7040238011069246e+00  -3.0351203197007064e+00 -2.9155799969883622e-01 -9.7462713379082411e-01 -2.9155799969883622e-01 8.8432958540277635e+00 2.3307344708904627e+00 -9.7462713379082400e-01 2.3307344708904627e+00 3.9536229731973638e+00  -3.0536337298134346e+00 8.3598948651210259e-01 -1.2968591191745407e+00 8.3598948651210259e-01 8.5055943419044038e+00 2.0343378057127501e+00 -1.2968591191745411e+00 2.0343378057127497e+00 4.5715497869006851e+00  -2.0424388335753503e+00 1.1990863714565398e+00 -2.6948283192936957e+00 1.1990863714565396e+00 8.3741001026436930e+00 2.1193447913473626e+00 -2.6948283192936957e+00 2.1193447913473626e+00 3.8001712846326212e+00  -2.3380076791343121e-01 -3.3418829902803898e-03 4.7675548462545869e+00 -3.3418829902804735e-03 1.9274692759941654e+00 -1.2779520429383895e+00 4.7675548462545869e+00 -1.2779520429383895e+00 6.5564094094205236e+00  2.8583501520763586e-02 6.3372362145714001e-01 4.0437713614197417e+00 6.3372362145714001e-01 1.5692647438411869e+00 -2.6533680342264345e+00 4.0437713614197417e+00 -2.6533680342264345e+00 6.5552466611353086e+00  4.7824969288870767e-01 1.2124657365265632e+00 3.3543930047535442e+00 1.2124657365265632e+00 1.0353670306299032e+00 -3.4428599952956613e+00 3.3543930047535442e+00 -3.4428599952956613e+00 6.8641619157745861e+00  1.3492773003164971e+00 9.2897199693619803e-01 1.9647376481180445e+00 9.2897199693619803e-01 3.4676640747354642e-01 -4.2903209843741124e+00 1.9647376481180445e+00 -4.2903209843741124e+00 6.9054998747048630e+00  1.7860400873528322e+00 6.4671996915572438e-01 1.1829787171414878e+00 6.4671996915572438e-01 -1.0665337588700546e-01 -4.6710588670983295e+00 1.1829787171414878e+00 -4.6710588670983295e+00 7.2166493516010233e+00  1.9382985482985735e+00 6.1771042763616356e-02 -5.7170703254225352e-01 6.1771042763616356e-02 -1.2515113471968717e-01 -4.8629779910155335e+00 -5.7170703254225352e-01 -4.8629779910155335e+00 7.4421845968798861e+00  1.9068273591191502e+00 -3.9457629589199544e-01 -1.6770694892730877e+00 -3.9457629589199544e-01 -2.0877005953108093e-02 -4.7434302038620677e+00 -1.6770694892730877e+00 -4.7434302038620677e+00 6.5009198425619807e+00  1.4704665797445049e+00 -1.0399995495910070e+00 -3.8403779537255884e+00 -1.0399995495910070e+00 8.4156638717473131e-01 -3.4127514267861798e+00 -3.8403779537255884e+00 -3.4127514267861798e+00 7.0741796561724124e+00  4.9448201512541551e-01 -8.6381941492936942e-01 -4.8926376384562067e+00 -8.6381941492936942e-01 1.4475507244358745e+00 -1.8860072695249697e+00 -4.8926376384562067e+00 -1.8860072695249692e+00 7.7148790115581605e+00  1.8117520650246721e+00 6.8575310916072418e-01 6.3563745658718263e-01 6.8575310916072418e-01 -1.2999724198860718e+00 1.4365839553712432e+00 6.3563745658718263e-01 1.4365839553712432e+00 8.6656196911356309e-01  1.6260904996111905e+00 1.4190187893912791e+00 3.3584971307070305e-01 1.4190187893912791e+00 -9.2042414329813860e-01 1.5352241169761991e+00 3.3584971307070305e-01 1.5352241169761991e+00 8.3259829841365807e-01  5.1042820441457026e-01 1.6326930684517931e+00 -1.8896009578389339e-01 1.6326930684517942e+00 -1.2414581517327691e-01 1.6212430814296674e+00 -1.8896009578389336e-01 1.6212430814296683e+00 9.5226078442097406e-01  -1.4980056583435200e-01 1.7917168892847906e+00 -8.6783900116123658e-01 1.7917168892847906e+00 1.3245607892617890e+00 1.4566715662992809e+00 -8.6783900116123658e-01 1.4566715662992806e+00 4.6469749883801370e-01  -8.8043687291834738e-01 1.1597817142266134e+00 -1.2117817491677776e+00 1.1597817142266131e+00 2.1847773896134002e+00 1.3142941599959594e+00 -1.2117817491677776e+00 1.3142941599959592e+00 3.8711927243118838e-01  -1.3400306898631245e+00 3.8219027700116809e-01 -1.4440021621806933e+00 3.8219027700116798e-01 2.3397075785079795e+00 9.2475224069867024e-01 -1.4440021621806933e+00 9.2475224069867035e-01 6.6156161103217903e-01  -1.1402410078572911e+00 -4.5351714463656784e-01 -1.7941567023102030e+00 -4.5351714463656784e-01 2.3616655852122435e+00 5.8806007457122478e-01 -1.7941567023102030e+00 5.8806007457122422e-01 6.3681106121950004e-01  -5.7144951175534042e-01 -1.4983609968436333e+00 -1.5420584345162203e+00 -1.4983609968436333e+00 1.8074097389473516e+00 3.0681251529164726e-02 -1.5420584345162203e+00 3.0681251529164729e-02 2.4825176148409905e-01  4.2786633280953867e-01 -1.9492484177370486e+00 -1.6668547223065686e+00 -1.9492484177370486e+00 4.1431754408854576e-01 1.7353853030292835e-01 -1.6668547223065686e+00 1.7353853030292840e-01 6.3170824508480394e-01  1.1291351423864502e+00 -8.2652585738384665e-01 -1.5557673650781769e+00 -8.2652585738384654e-01 -1.2760307157270430e+00 -4.5044221405742946e-01 -1.5557673650781769e+00 -4.5044221405742946e-01 9.9530364819999706e-01  2.7986035687774193e+00 -1.1985884312970843e+00 -1.2234332506912169e+00 -1.1985884312970843e+00 -1.7347763505532534e+00 -8.3891873511136505e-01 -1.2234332506912169e+00 -8.3891873511136505e-01 8.8530600994609687e-01  4.9453585921253218e+00 -8.1052193959416263e-01 -1.4195387608822601e+00 -8.1052193959416308e-01 -2.3249313646618375e+00 -1.9068332285304896e+00 -1.4195387608822601e+00 -1.9068332285304896e+00 2.5011320697293034e+00  4.9252119375264725e+00 -5.6216362922507856e-01 -1.2609383465264810e+00 -5.6216362922507845e-01 -9.7469459753966248e-01 -3.0084007755300890e+00 -1.2609383465264810e+00 -3.0084007755300890e+00 1.4651646612286242e+00  3.8849651496779805e+00 -1.3211142327602884e-01 -7.1615626826306611e-01 -1.3211142327602898e-01 -8.7836471875887923e-01 -2.5322731883494027e+00 -7.1615626826306611e-01 -2.5322731883494027e+00 3.1017690997842601e-01  3.2154593073895668e+00 2.6312977071571507e-02 -5.5878496489649787e-01 2.6312977071571226e-02 -1.7507297461280671e+00 -1.7034522666813461e+00 -5.5878496489649798e-01 -1.7034522666813461e+00 8.0890219107116434e-01  2.8733548963786055e+00 -5.7957393664397783e-01 -9.6626638210106497e-01 -5.7957393664397738e-01 -2.3601646534170189e+00 -1.0733510198975709e+00 -9.6626638210106497e-01 -1.0733510198975706e+00 2.2484811783000529e+00  2.2436644728314956e+00 -6.2278093554021885e-01 -7.7601230355161843e-01 -6.2278093554021885e-01 -2.3928153202083893e+00 -5.4261022429512562e-01 -7.7601230355161843e-01 -5.4261022429512551e-01 2.3275295181766031e+00  1.4094246768327414e+00 -9.1754152774936570e-01 -1.4029490476625728e-01 -9.1754152774936570e-01 -1.7651900197510215e+00 7.3117884960898594e-01 -1.4029490476625728e-01 7.3117884960898616e-01 1.3977231672936108e+00  1.3964537368078975e+00 -1.4486046189253148e+00 -6.8609486594452835e-03 -1.4486046189253148e+00 -1.0899639783194488e+00 2.2354519149372054e+00 -6.8609486594452939e-03 2.2354519149372054e+00 2.1379518468773773e+00  1.6260969806982868e+00 -1.1552447657451226e+00 -2.9204902785571940e-01 -1.1552447657451226e+00 -1.2114578603289949e+00 2.9141789067486217e+00 -2.9204902785571940e-01 2.9141789067486217e+00 3.2784819063041684e+00  5.8777551852992327e-01 2.2223593066475922e-01 -4.0146064306020718e-01 2.2223593066475922e-01 -9.8984740499834592e-02 3.1275888258830360e+00 -4.0146064306020718e-01 3.1275888258830360e+00 1.3491597376008826e+00  5.9004477521994325e-01 7.3238226001703904e-02 5.2133911849221039e-02 7.3238226001703904e-02 -2.2951645267583032e-01 2.8750656384390707e+00 5.2133911849220962e-02 2.8750656384390707e+00 9.9204323882587298e-01  6.9971179081500023e-01 -1.8094068111310507e-01 6.6376269265222354e-01 -1.8094068111310507e-01 -3.0890290456575770e-01 2.7727540562766850e+00 6.6376269265222354e-01 2.7727540562766850e+00 9.9456477757764672e-01  8.1331950554866728e-01 -4.3326155635215247e-01 1.0458719397405016e+00 -4.3326155635215247e-01 -1.5816319129639056e-01 2.4725285630130895e+00 1.0458719397405016e+00 2.4725285630130891e+00 7.0717193604574757e-01  6.3961510541113542e-01 -3.7263502519732494e-01 1.5079849826995750e+00 -3.7263502519732494e-01 -1.2724518198939985e-01 2.1981722537261517e+00 1.5079849826995750e+00 2.1981722537261521e+00 6.1427230657507026e-01  1.0465699960476325e+00 -2.5246142663218418e-01 1.3157830873087981e+00 -2.5246142663218418e-01 1.1796882013498060e-01 1.6442498152521834e+00 1.3157830873087983e+00 1.6442498152521836e+00 -6.1541178804083241e-01  1.1343008110371440e+00 -3.8532713626410975e-01 1.5913577621818300e+00 -3.8532713626410975e-01 2.3055429110353012e-01 9.6603865012088019e-01 1.5913577621818300e+00 9.6603865012088042e-01 -7.9833448547751484e-01  6.3745528298929743e-01 -7.5693339879529775e-01 2.1522747493796830e+00 -7.5693339879529786e-01 6.4758378257061289e-01 7.8357659387393230e-01 2.1522747493796830e+00 7.8357659387393230e-01 -8.8687666625705111e-02  7.0220321438989530e-01 -8.0585150964758501e-01 1.9564495977267835e+00 -8.0585150964758501e-01 1.0247941736104236e+00 1.3017773442019157e-01 1.9564495977267835e+00 1.3017773442019157e-01 -8.0453429808228349e-01  4.3015185172098824e-01 -8.1757706239130457e-01 2.0000667838494324e+00 -8.1757706239130457e-01 1.3887496561146355e+00 -1.7876373289320710e-01 2.0000667838494324e+00 -1.7876373289320710e-01 -8.3561660444261965e-01  -1.1146529258137559e-01 -4.7934464971445012e-01 1.8452815609351445e+00 -4.7934464971445007e-01 1.5921496650575224e+00 -7.1887297775474701e-01 1.8452815609351445e+00 -7.1887297775474701e-01 -5.1199040856852274e-01  -2.5776630011746771e-01 1.1720709637591835e-01 1.8186076479768143e+00 1.1720709637591835e-01 1.3845596487238783e+00 -1.0266713731830561e+00 1.8186076479768143e+00 -1.0266713731830561e+00 7.7195325457348673e-03  2.3649957193014357e-01 1.7588188433198640e-01 1.1674706374020005e+00 1.7588188433198645e-01 1.4721880468212485e+00 -1.1617985431821074e+00 1.1674706374020007e+00 -1.1617985431821074e+00 -9.9757417758284395e-01  3.5478479882985592e-01 -6.6250146256516540e-01 -2.2079985994403115e-01 -6.6250146256516540e-01 1.7280950994578548e+00 -1.5993382087713126e+00 -2.2079985994403090e-01 -1.5993382087713126e+00 -1.5238325967823372e+00  -1.6890358924103219e-01 5.3672846299779253e-01 8.5778711249808526e-01 5.3672846299779253e-01 1.1201196724851512e+00 -1.4925716762441681e+00 8.5778711249808526e-01 -1.4925716762441681e+00 -1.2124597607665256e-01  1.8939082460406802e+00 -7.8652688431939899e-01 8.4861070578271147e-01 -7.8652688431939899e-01 -1.6996133457684652e+00 6.9372711824186217e-01 8.4861070578271114e-01 6.9372711824186251e-01 1.2184612289334831e+00  1.8886522221815440e+00 -8.3797533707525362e-01 1.0301584896290712e+00 -8.3797533707525362e-01 -1.9068666888693380e+00 5.8120066492182119e-02 1.0301584896290712e+00 5.8120066492182348e-02 1.3858716566553715e+00  2.4804165867982291e+00 -1.3452032713842270e+00 1.0824887003723227e+00 -1.3452032713842268e+00 -2.1869790876011024e+00 -1.1816450182257861e-01 1.0824887003723229e+00 -1.1816450182257872e-01 2.1152727402957785e+00  3.3245904138371758e+00 -1.3459767973289047e+00 1.1915498242411520e+00 -1.3459767973289047e+00 -2.4556884733143920e+00 3.0883323580517813e-01 1.1915498242411522e+00 3.0883323580517813e-01 2.6660841888209332e+00  3.0501950465786289e+00 -1.1521774573743837e+00 1.1510967733914308e+00 -1.1521774573743837e+00 -2.4170172357182169e+00 5.6478715403262048e-01 1.1510967733914308e+00 5.6478715403262048e-01 2.6417352295666525e+00  2.7509852328441666e+00 -8.8144264914601089e-01 8.9426026767343891e-01 -8.8144264914601111e-01 -2.5097245448099952e+00 4.5670281495207715e-01 8.9426026767343891e-01 4.5670281495207715e-01 2.6239322814839161e+00  2.1130782243334991e+00 -7.3027446730300205e-01 6.9178154005121406e-01 -7.3027446730300205e-01 -2.4398028139943944e+00 2.0579338792550930e-01 6.9178154005121406e-01 2.0579338792550930e-01 2.7202217454689537e+00  1.4694626827040838e+00 -6.8386532778585551e-01 1.2513280315302533e+00 -6.8386532778585551e-01 -2.1878151378480108e+00 -1.8720592504693523e-01 1.2513280315302533e+00 -1.8720592504693523e-01 2.5807102935931625e+00  9.1299547632910427e-01 -3.6875187037743223e-01 1.3842032490843175e+00 -3.6875187037743223e-01 -8.5690379378805970e-01 -1.1660072432176691e-01 1.3842032490843175e+00 -1.1660072432176689e-01 1.8162061022072248e-01  3.4176092341498956e+00 1.0188256149742096e+00 -7.0799953759543965e-01 1.0188256149742096e+00 -2.0941083100191533e+00 -1.3623128303342935e+00 -7.0799953759543965e-01 -1.3623128303342935e+00 1.2104498510188837e+00  3.0177527868601928e+00 2.5719472501395613e+00 -2.3656907023312279e-01 2.5719472501395613e+00 -1.2617342880559719e+00 -1.4840613844715882e+00 -2.3656907023312271e-01 -1.4840613844715882e+00 1.3297138205676455e+00  1.2779037853902318e+00 3.0189561306724535e+00 2.4563044154919808e-01 3.0189561306724531e+00 -9.4162510081414866e-02 -1.4458763786923532e+00 2.4563044154919833e-01 -1.4458763786923532e+00 1.6575742682728170e+00  -4.6029920412266950e-01 2.9497549141452635e+00 5.7944028829430994e-01 2.9497549141452648e+00 1.6607347948837619e+00 -1.3630718381677127e+00 5.7944028829431005e-01 -1.3630718381677127e+00 1.7116275620092618e+00  -1.6256500629561392e+00 1.8020193367304047e+00 9.0818238617023295e-01 1.8020193367304047e+00 2.1507987634810517e+00 -1.3173246123929447e+00 9.0818238617023295e-01 -1.3173246123929447e+00 1.9036664875399230e+00  -1.8805156178327480e+00 6.5470056800295950e-01 1.3234645549536752e+00 6.5470056800295962e-01 2.6825599729644001e+00 -9.6736694510380483e-01 1.3234645549536743e+00 -9.6736694510380483e-01 1.3969319153682287e+00  -1.5098333737017506e+00 -6.7625435119673072e-01 1.5900024070460661e+00 -6.7625435119673072e-01 2.1852421865234484e+00 -5.7329121509405079e-01 1.5900024070460663e+00 -5.7329121509405079e-01 9.7938942717155830e-01  -1.4941799915448706e+00 -1.0183129837042508e+00 1.2914463601800747e+00 -1.0183129837042508e+00 1.5554461874344012e+00 -4.9162351980434388e-01 1.2914463601800747e+00 -4.9