<?xml version="1.0"?>
<VTKFile type="UnstructuredGrid"  version="0.1"  >
<UnstructuredGrid>
<Piece  NumberOfPoints="1268" NumberOfCells="4847">
<Points>
<DataArray  type="Float64"  NumberOfComponents="3"  format="ascii">1.994716987487452 0.01317707561264319 -1.202466945460223e-11  1.374072606111497 -0.08614134488653273 -5.388997575085332  -1.285941478930618 0.1916557790035214 -5.691288663606836  -1.59032616235459 -0.4515196446136259 1.626303258728257e-17  0.4950030257755884 2.521650519233041 -5.495391852657774  -0.4107718940653654 -2.429115409112172 -5.58531208084276  -0.9314707163843408 -3.006923447963563 4.87890977618477e-17  1.161824811771535 2.948440156756841 -3.391384395534658e-14  2.146749234505421 0.002696741478414759 -0.5615078450779066  2.330988047973839 -0.000873250973709995 -1.113141311680313  2.540713632977715 -0.1384292375506191 -1.637427654548237  2.645241452520652 -0.2872312815961211 -2.18637082393926  2.504842461151312 -0.2752146673621067 -2.746850782899552  2.287876352721185 -0.2088259978706829 -3.283011632728322  2.137771360922677 -0.2093380261300688 -3.844996501809416  1.970142554575494 -0.2193701374385486 -4.401638277082749  1.701580801829277 -0.1696632515169769 -4.915066532844666  1.398049690886424 0.4419377546899956 -5.387643705321969  1.183972204621215 0.9208338616597355 -5.413149504812257  0.7621482426349403 1.234356207118232 -5.461782499987256  0.2539805730796886 1.370727420898931 -5.519751404145364  -0.2689415860383004 1.319053689498898 -5.578906487138381  -0.7357170559581984 1.076180709179107 -5.631191713357971  -1.086003096318238 0.6812820615514149 -5.669884670156524  -1.65706961757681 -0.5275128747266272 -0.6240725009925172  -1.829082870387909 -0.8347372240299333 -1.153553189134448  -2.030635262011336 -1.097965926806997 -1.693320688638939  -2.148557703924963 -0.9683820133813712 -2.295450526931833  -2.119047321408695 -0.7521727279271558 -2.890676896601294  -1.972500555455803 -0.7106310836492745 -3.509380855831461  -1.885028119342598 -0.4902108162504233 -4.093718100793141  -1.832050776792238 -0.1313823297003599 -4.617858136599065  -1.636180550340053 0.1151199882480144 -5.165527944859976  -1.540434086810702 0.1014447694855235 -7.644826989049428e-17  -1.339902801239663 0.6191128040412099 2.218327606354497e-17  -0.9949589579071262 1.053322092476122 2.12059320661159e-17  -0.5243975458638882 1.346285776146202 7.754217898549941e-16  0.01399251627036286 1.481823287560149 3.252316763596149e-17  0.5696211504784076 1.47677978548424 -7.207855520904863e-17  1.105448032340458 1.331487337928338 1.951563910473908e-16  1.561367740818086 1.018090979386763 -2.179459114756194e-16  1.860006992193919 0.551530302300456 1.369433074745588e-16  -0.152869286718376 2.506583809965366 -5.568804938302105  -0.7781210310064858 2.335338381675429 -5.639249366957451  -1.340550096787874 2.011723800088065 -5.702178028336585  -1.803922993566052 1.555830170950866 -5.753534898075912  -2.144678763029901 1.000979069722826 -5.790734833138769  -2.346903237737564 0.3811866585909049 -5.812061421922149  -2.406990243842066 -0.2684488461825228 -5.817196438260218  -2.318433628103212 -0.9144163570965761 -5.805488779558074  -2.059391262210163 -1.511004864267824 -5.774580158166454  -1.615755841275718 -1.983465489741105 -5.72306417450185  -1.043145925381342 -2.287058241276404 -5.657361969815248  -0.6986882361605687 -2.420627649803484 -5.024556445072709  -0.8272574030199392 -2.685291244074475 -4.476216325063944  -0.8113210073272845 -3.118860027310894 -4.01596683617901  -0.7618552434953355 -3.481598098596065 -3.504026669625047  -0.7509882165597778 -3.609083979854663 -2.886473298216772  -0.7986167670519319 -3.732483084086931 -2.268445488219849  -0.8276969497603353 -3.810997815301134 -1.64593496945388  -0.7425506523451623 -3.557242155569485 -1.078322423839125  -0.7147449622328144 -3.21189056194362 -0.5511080601316157  -1.482234509376526 -2.778582553401298 -5.854479658363816e-16  -1.970737176894139 -2.437284655419533 2.764697292186607e-16  -2.362818572203899 -1.988727212877528 2.439101268600111e-16  -2.642390785384022 -1.462244173776716 5.051059276813266e-16  -2.812149102113852 -0.89052423419162 2.276851973687203e-16  -2.877946727920729 -0.2976446157883296 -1.219909928720168e-16  -2.842947107925845 0.2978601752284433 4.065446096494693e-17  -2.70313036896374 0.8776122116387211 -5.041496169361013e-16  -2.452324348076021 1.418519584933707 4.379274460317988e-16  -2.098265626135573 1.898294456130726 1.951060033519619e-16  -1.658391347368763 2.301023318502569 -1.789574489620802e-16  -1.154148079923361 2.619757341302747 -2.081203863085907e-15  -0.6042202207747882 2.851073703499478 -3.577841418755692e-16  -0.02416138323675775 2.990516581461941 4.065982498622179e-16  0.5710641261211448 3.028216945076794 -1.46882551317968e-16  0.6414151130412097 2.696325287154043 -4.983333021490838  0.771852374565919 2.778456367279237 -4.445188759107248  0.8805845204306011 2.73078881179073 -3.897720120696569  0.9481597620953167 2.69798349057175 -3.343104559074628  0.9815370707090804 2.778214865778854 -2.789250505759619  1.013475345489448 2.861817704396183 -2.235671116027784  1.055849759321274 2.898356228459238 -1.677594140621302  1.093646323460014 2.92793989028903 -1.118725590781912  1.124098871622056 2.957526991478201 -0.5594169689370629  0.2477015793419729 -2.415655802610486 -5.510682951113449  0.8844491790088972 -2.245867158009595 -5.438931443942415  1.464891069119211 -1.932330028996181 -5.373934600293736  1.955087092649627 -1.489613175355717 -5.319502697776375  2.318355026965356 -0.937054784961175 -5.279744576064058  2.524994411863564 -0.307899182343253 -5.257941630215678  2.574632820450045 0.3531084349228537 -5.254020561031156  2.465743861849647 1.006614152640354 -5.268052816559671  2.183897076015212 1.604484044160622 -5.301550147358176  1.722560240631265 2.07491696755195 -5.35506775502591  1.13806318635062 2.378906583716481 -5.422118662603529  1.742182153284979 2.73179858498085 5.854691697147836e-16  2.262480931380501 2.395264875892136 -2.601681534737615e-16  2.698000706832733 1.954727370266727 -3.903113804560263e-16  3.021530388777258 1.426473918441798 1.707421408502106e-16  3.223363606607101 0.8405687193648443 -2.844806418042028e-16  3.305434793487241 0.2261994274297442 -4.472186606099012e-16  3.269241566985055 -0.3926051469820059 3.171555149681837e-16  3.113478077610213 -0.9924495549400153 3.510830505762065e-16  2.840400132149515 -1.548806515270482 -1.707368614952523e-16  2.466120284856568 -2.042983582774378 9.732831365154574e-17  2.008125599488538 -2.460814027017948 -3.577575055983979e-16  1.482521285196868 -2.789563899556613 -4.886146623064541e-17  0.9057866143556688 -3.01678997208197 -2.439392613813594e-16  0.2964958724913082 -3.130681163554852 3.414395345104792e-16  -0.32338307292875 -3.126978161260848 2.926910878106614e-16  -1.29067345658392 -0.3506098753383553 -5.690421630247788  -1.068897680254163 -0.8451623229646739 -5.663999894259847  -0.6782440885714781 -1.219621806060448 -5.6187489875115  -0.168757542531344 -1.390394566692369 -5.560546895724229  0.3611301401510615 -1.294122251639114 -5.500717901478111  0.8191548613516448 -1.005201308695582 -5.449538098373106  1.16817203978903 -0.5892762115769014 -5.411042670828763  1.960898302630318 -0.551652302616722 -8.131516293641286e-17  1.751009740180289 -1.077278642631261 7.445724005953314e-16  1.394016468000002 -1.516729095803803 1.136104663605282e-15  0.9227767039454898 -1.830301465573364 3.434443593283319e-16  0.3780412068884804 -1.984007749105097 8.617772484356591e-16  -0.1885780664025548 -1.977994130030172 2.357202029695971e-16  -0.7327557451871473 -1.821291124380143 1.942410916395698e-17  -1.191068596016128 -1.491774666596192 2.975009434367945e-16  -1.480405544894888 -1.006855825633415 6.954512630084263e-16  -1.812414118534285 0.2561131097252937 -2.664867827914479  2.421751940242729 0.6298287624476981 -1.933377861698098  0.7556418177061754 1.42269463362527 -4.617654324361507  0.003134751711410342 1.574821943356493 -0.9318675177876981  1.015098001669947 1.51699057942374 -0.9441494884276413  0.6193243625380082 1.764115149411371 -1.862230514405671  -0.4757031201037318 1.549728101933577 -1.958273018773558  0.1126459993007786 1.698838152590054 -2.957602797129454  -0.3405660022430232 1.569615851499001 -4.678135257405353  1.818199099779932 0.7365610114574719 -3.763003518505052  -0.9541815370276669 1.23451227632913 -2.875526912859068  -1.269464226480212 1.016489154450913 -4.672047638709048  1.301562892980348 1.557566760682666 -2.802482532053872  -0.7813756340336595 1.414221906310649 -3.725761628685261  -1.58370798409762 0.5643609111372817 -3.581008460136619  -0.988817348255397 1.158392548936659 -1.014254585170146  -1.607700527190565 0.2800106654898483 -1.030081240453645  -1.388203055800784 0.7951310659851955 -1.943712885648593  0.8261955720421881 1.570157055202129 -3.620947225245673  1.681455131778566 1.410849015379531 -1.876189895849114  1.878739160554727 0.943024132521903 -0.9866418074548234  2.103426639579445 1.000735947836943 -2.593434794762663  1.62623803052506 0.6468498306152269 -4.727220189271843  -1.882943490361709 -0.1546739965127431 -1.761716647663214  0.05868355051519467 1.656538949473053 -3.863342338366238  2.465845305360337 0.2632819454094029 -2.663569745038379  1.994842599423799 0.5019775153043848 -0.4779055074204815  2.1671824130763 0.4980244878585698 -1.027636182799239  1.710213566460811 0.9718796190568162 -0.4957578884333736  1.845584590132108 0.2253887364997403 -4.583879812097906  1.579035044615276 0.2924902970866011 -5.101748935835201  1.409777182251665 0.7868327264427526 -5.07202467441607  -1.039178737375989 1.089168173550246 -5.170746090958521  -1.377687418630729 0.6683636420802941 -5.233117919580046  -1.641402128985454 0.4875654733502939 -4.648722230221863  -1.765467255797776 -0.2695484060062747 -1.079683539430899  -1.617858736076732 -0.08318463488274264 -0.5123563299218489  -1.474019211051276 0.4496529111656123 -0.5150171376928306  2.417677350191343 0.3274903893149403 -1.506992657970159 
[...]
<PointData  Tensors="stress"> 
<DataArray  type="Float64"  Name="stress"  NumberOfComponents="9" format="ascii">2.4466840354724198e-01 -1.9593195969748628e-01 -4.6530063902328189e+00 -1.9593195969748628e-01 1.4247261508584530e+00 -3.5064811105000065e-01 -4.6530063902328189e+00 -3.5064811105000065e-01 4.6103042543565600e+00  -1.7422001412479577e+00 7.9525709244844511e-01 2.5897955877509173e+00 7.9525709244844511e-01 7.8151869121789357e+00 -1.4983742416497048e+00 2.5897955877509173e+00 -1.4983742416497048e+00 1.7802011434304146e+00  -1.0442907471654195e+00 1.2573847193145786e+00 -3.0393916623111754e+00 1.2573847193145786e+00 7.6657731779597169e+00 1.6272818426259372e+00 -3.0393916623111754e+00 1.6272818426259372e+00 1.4879194637364876e+00  -5.7035194987416507e-02 -6.8057886631384934e-01 4.3010439796468329e+00 -6.8057886631384934e-01 1.3106056332878036e+00 -7.9920181505410359e-01 4.3010439796468329e+00 -7.9920181505410359e-01 5.0249424995185530e+00  1.8305385947051462e+00 -1.5845303890990228e-01 9.7108560381186815e-01 -1.5845303890990217e-01 -1.3550325406284927e+00 8.3628595340244138e-01 9.7108560381186815e-01 8.3628595340244116e-01 5.5439705307026299e-01  3.3646168461485604e+00 -1.1035168244081807e-01 -9.4366332205077086e-01 -1.1035168244081808e-01 -2.1473437285487353e+00 -6.2001134102189348e-01 -9.4366332205077075e-01 -6.2001134102189348e-01 7.7495702812219747e-01  4.9872882881311820e-01 3.6837434161594346e-01 -1.0476294386942706e+00 3.6837434161594351e-01 -1.7144612705571017e-03 2.8104528221602978e+00 -1.0476294386942706e+00 2.8104528221602978e+00 1.3380415969788397e+00  2.1832303971811257e-01 5.3677329089254311e-01 1.0145892128166945e+00 5.3677329089254311e-01 9.6912725653638010e-01 -1.1677976345858079e+00 1.0145892128166945e+00 -1.1677976345858079e+00 -5.8443972954288526e-01  -2.3222713064687173e+00 -7.3845244457990089e-01 -2.5317773829515735e+00 -7.3845244457990089e-01 4.2655791936239362e+00 -1.3599968078271478e+00 -2.5317773829515735e+00 -1.3599968078271478e+00 3.9691324979065512e+00  -2.6114825147403682e+00 -9.4561421682867619e-01 -2.1085459812461935e+00 -9.4561421682867619e-01 5.7561418984183872e+00 -1.1516604709795797e+00 -2.1085459812461935e+00 -1.1516604709795797e+00 3.6884794896499375e+00  -3.0357498739091127e+00 -1.7680270176237689e-01 -1.8439341570008188e+00 -1.7680270176237689e-01 6.4039208921780277e+00 -6.5811365801555122e-01 -1.8439341570008188e+00 -6.5811365801555122e-01 4.1629082195099247e+00  -3.3758684118288160e+00 4.7618296460723880e-01 4.2584951967933320e-02 4.7618296460723880e-01 6.3015970988327306e+00 -1.0410087397201810e+00 4.2584951967933320e-02 -1.0410087397201810e+00 5.0017602105570518e+00  -2.6222418308762272e+00 -8.7203746871327828e-02 2.1830966426768694e+00 -8.7203746871328022e-02 7.4130081459779911e+00 -1.3323630721267876e+00 2.1830966426768694e+00 -1.3323630721267876e+00 3.4407200509081570e+00  -2.4630004874836846e+00 -8.5390763348477405e-01 1.9284870537559859e+00 -8.5390763348477405e-01 8.2155234826706582e+00 -4.6958704850200050e-01 1.9284870537559859e+00 -4.6958704850200050e-01 2.3003815918189918e+00  -2.6736096236285278e+00 -3.2007702005788513e-01 1.6999765035674625e+00 -3.2007702005788519e-01 8.4634246549213987e+00 -2.9499027665957600e-01 1.6999765035674625e+00 -2.9499027665957600e-01 2.4139914744057487e+00  -2.3659355687676844e+00 7.5103754229907255e-02 2.2408282473047954e+00 7.5103754229907185e-02 8.0480731559125189e+00 -7.8805397984295500e-01 2.2408282473047958e+00 -7.8805397984295500e-01 2.3177852837301094e+00  -1.5550354761792426e+00 5.5149931783945838e-01 2.9542702637536666e+00 5.5149931783945838e-01 7.8839306376087697e+00 -1.0371544462513960e+00 2.9542702637536666e+00 -1.0371544462513960e+00 1.8916053612885881e+00  -1.2174304481942611e+00 -2.3902792436224480e+00 3.1717548638591122e+00 -2.3902792436224480e+00 6.6116392451903598e+00 -3.1497124449398800e-01 3.1717548638591122e+00 -3.1497124449398806e-01 2.4111601022991018e+00  1.6732810097468769e+00 -4.7731447847424224e+00 2.5231345683366064e+00 -4.7731447847424224e+00 3.4725303169022541e+00 9.4792848190430046e-01 2.5231345683366069e+00 9.4792848190430046e-01 2.6976690643730885e+00  5.0713977148092084e+00 -3.7164697477763924e+00 1.9246561052132936e+00 -3.7164697477763924e+00 -5.9259742973265206e-01 1.9148054768915692e+00 1.9246561052132936e+00 1.9148054768915692e+00 3.0259086171411687e+00  6.5547193975892259e+00 -8.4031028468438029e-01 1.2038128604947480e+00 -8.4031028468438029e-01 -2.0439140694817879e+00 2.8626568628524174e+00 1.2038128604947480e+00 2.8626568628524183e+00 3.1538276288662792e+00  6.0734750310451986e+00 2.0899427894748706e+00 -1.2327933067709580e-01 2.0899427894748710e+00 -1.1853802335485664e+00 3.4724615302187161e+00 -1.2327933067709571e-01 3.4724615302187161e+00 3.0173391773060341e+00  3.5259988417421879e+00 3.9867597295554802e+00 -1.1785751265891511e+00 3.9867597295554802e+00 1.6567423450961942e+00 3.3065683993625070e+00 -1.1785751265891509e+00 3.3065683993625066e+00 2.3952432710146989e+00  6.5348235625556317e-01 3.6326321106221311e+00 -2.2160337130198551e+00 3.6326321106221311e+00 5.0215064591409657e+00 2.7370595719500086e+00 -2.2160337130198551e+00 2.7370595719500086e+00 2.1032340199469708e+00  -2.6609851682393693e+00 -1.5920747033188989e-01 2.2544596053131869e+00 -1.5920747033188989e-01 3.6711404690543965e+00 2.4623944316724908e-01 2.2544596053131869e+00 2.4623944316724908e-01 4.1477558289828131e+00  -2.5903717190025248e+00 -5.4751664467779237e-01 2.0924512174048724e+00 -5.4751664467779249e-01 5.4107648357394158e+00 1.4497533494099110e-01 2.0924512174048724e+00 1.4497533494099116e-01 3.0521443531607271e+00  -2.9108285086686863e+00 -6.5775261528798679e-01 1.8246161044930118e+00 -6.5775261528798679e-01 5.8365947104105675e+00 5.3714438450565416e-01 1.8246161044930118e+00 5.3714438450565394e-01 4.0158293232516140e+00  -3.3949287204715093e+00 -3.8319973854543410e-01 3.6933467932672071e-01 -3.8319973854543410e-01 6.5288178059798820e+00 9.7717705276468181e-01 3.6933467932672071e-01 9.7717705276468181e-01 4.5397247899481199e+00  -3.2403425901616245e+00 3.1411248733174829e-03 -8.5387959546058911e-01 3.1411248733174829e-03 7.1689821775870719e+00 1.6368555719442073e+00 -8.5387959546058911e-01 1.6368555719442073e+00 4.1018951468033240e+00  -2.8870269437811444e+00 -5.0232956336663737e-01 -1.1741951490084717e+00 -5.0232956336663748e-01 7.8186189530335479e+00 1.8831288195683820e+00 -1.1741951490084717e+00 1.8831288195683820e+00 3.0568389351145204e+00  -2.9930877145014692e+00 -3.1104003854294887e-01 -9.3258987480376077e-01 -3.1104003854294898e-01 7.7753671995662410e+00 2.1226788577488902e+00 -9.3258987480376032e-01 2.1226788577488911e+00 3.2762617327923569e+00  -3.0418595068677674e+00 7.1965622761251491e-01 -1.2343861466051873e+00 7.1965622761251491e-01 7.4922887473585389e+00 1.8445666240574259e+00 -1.2343861466051873e+00 1.8445666240574259e+00 3.8383668798465260e+00  -2.1557286485871421e+00 1.0663262192546523e+00 -2.4567495211741366e+00 1.0663262192546523e+00 7.3747126977416979e+00 1.9406891673780471e+00 -2.4567495211741366e+00 1.9406891673780471e+00 3.1407973114631380e+00  -6.0259299052363113e-01 3.9675851012648811e-02 4.1071986867225121e+00 3.9675851012648831e-02 1.5729640796956050e+00 -1.2349068013687274e+00 4.1071986867225121e+00 -1.2349068013687274e+00 5.5998029666702047e+00  -2.6768267629663051e-01 6.2481303892362838e-01 3.4659836815005178e+00 6.2481303892362838e-01 1.1708342139306143e+00 -2.4176301608773341e+00 3.4659836815005178e+00 -2.4176301608773341e+00 5.5302323758691179e+00  1.5323629406041533e-01 1.2351924683784432e+00 2.8326304418818040e+00 1.2351924683784432e+00 6.6193036350020751e-01 -3.0501396184036573e+00 2.8326304418818040e+00 -3.0501396184036573e+00 5.8781083390164977e+00  1.0003742270550082e+00 8.9795006205118477e-01 1.5910625247834775e+00 8.9795006205118477e-01 2.0435215746041274e-02 -3.8043458842979012e+00 1.5910625247834775e+00 -3.8043458842979012e+00 5.8033734157417474e+00  1.4307432298644081e+00 6.4019912681016777e-01 9.2064438632554790e-01 6.4019912681016777e-01 -4.7458276668032345e-01 -4.0837105346263662e+00 9.2064438632554790e-01 -4.0837105346263662e+00 6.1813623670619746e+00  1.5649746276397603e+00 3.3684432166950003e-02 -6.4151336330296638e-01 3.3684432166950003e-02 -4.6911661579298741e-01 -4.2273776888614085e+00 -6.4151336330296638e-01 -4.2273776888614085e+00 6.3220938611629105e+00  1.5377093544896046e+00 -4.2642530263571771e-01 -1.5527950799902352e+00 -4.2642530263571771e-01 -4.2284773780904145e-01 -4.0601996075247051e+00 -1.5527950799902352e+00 -4.0601996075247051e+00 5.5092508076218785e+00  1.0673484307061922e+00 -1.0148247271894086e+00 -3.5139812488967013e+00 -1.0148247271894086e+00 5.0839593303762010e-01 -2.8590750586861402e+00 -3.5139812488967013e+00 -2.8590750586861402e+00 5.8918303608790143e+00  1.3714749826081804e-01 -8.4206782590725937e-01 -4.4064990414252687e+00 -8.4206782590725937e-01 1.0676808392732982e+00 -1.4454872880418848e+00 -4.4064990414252687e+00 -1.4454872880418848e+00 6.4974592699960665e+00  1.5687867503290802e+00 6.3535297228572207e-01 6.2990975796846926e-01 6.3535297228572196e-01 -1.1477906329620313e+00 1.2794359879381179e+00 6.2990975796846937e-01 1.2794359879381183e+00 6.5135588857712312e-01  1.4310412210121812e+00 1.2730819006587957e+00 3.7548876361493477e-01 1.2730819006587957e+00 -8.8451558669780084e-01 1.3730764488675673e+00 3.7548876361493477e-01 1.3730764488675673e+00 6.9578643858357814e-01  3.8340778124742808e-01 1.4555051620851389e+00 -6.5071829532600794e-02 1.4555051620851389e+00 -1.5362802322783206e-01 1.4441602694667046e+00 -6.5071829532600794e-02 1.4441602694667046e+00 7.9357448179691625e-01  -2.3691123497689340e-01 1.5851907402623919e+00 -7.7662219763588358e-01 1.5851907402623919e+00 1.1917094184513517e+00 1.2942886092897885e+00 -7.7662219763588358e-01 1.2942886092897885e+00 3.2783486117543348e-01  -8.8698086769402662e-01 1.0214911445878019e+00 -1.0577454587277182e+00 1.0214911445878019e+00 1.9771601420065728e+00 1.1520017081009131e+00 -1.0577454587277184e+00 1.1520017081009131e+00 2.4940512107597962e-01  -1.2555942262622850e+00 3.2880101576845905e-01 -1.2601244552725859e+00 3.2880101576845860e-01 2.0841371588537236e+00 8.1970189125859372e-01 -1.2601244552725859e+00 8.1970189125859372e-01 4.7707519077698368e-01  -1.0812917003302365e+00 -4.0812857144792519e-01 -1.5525321565378054e+00 -4.0812857144792519e-01 2.0368297621514340e+00 5.0080284596979019e-01 -1.5525321565378056e+00 5.0080284596979019e-01 4.6102782900632100e-01  -5.7456870776317825e-01 -1.3584552582961233e+00 -1.3326350335409394e+00 -1.3584552582961231e+00 1.6297397432531051e+00 3.1411786901956160e-02 -1.3326350335409398e+00 3.1411786901956229e-02 1.2538665820356812e-01  2.6079800312990781e-01 -1.7146336393316894e+00 -1.4962896730984010e+00 -1.7146336393316894e+00 3.6864629537238874e-01 2.4050217939318597e-01 -1.4962896730984014e+00 2.4050217939318597e-01 5.2814932679598536e-01  9.7890390062522348e-01 -6.7036070814836834e-01 -1.4583157494540209e+00 -6.7036070814836834e-01 -1.1897652750026553e+00 -2.8410370757478481e-01 -1.4583157494540209e+00 -2.8410370757478470e-01 8.2620622434649527e-01  2.5122431871252817e+00 -9.6914062149269276e-01 -1.1952326947873362e+00 -9.6914062149269298e-01 -1.6182487182625016e+00 -7.6837375316869938e-01 -1.1952326947873366e+00 -7.6837375316869938e-01 7.0236427613376695e-01  4.4673402503578021e+00 -7.3375561822889257e-01 -1.3231503149214809e+00 -7.3375561822889190e-01 -2.2892922091359682e+00 -1.7311524081896705e+00 -1.3231503149214809e+00 -1.7311524081896705e+00 2.1742341890498507e+00  4.4497775863555953e+00 -4.7633074713924078e-01 -1.1796011209484478e+00 -4.7633074713924073e-01 -1.0417066390617515e+00 -2.7817484884932222e+00 -1.1796011209484478e+00 -2.7817484884932222e+00 1.2100597246257969e+00  3.4557271589541094e+00 -8.3788232509030086e-02 -6.9915316105238490e-01 -8.3788232509030197e-02 -8.9523061150817307e-01 -2.2936771603775314e+00 -6.9915316105238490e-01 -2.2936771603775310e+00 1.6868354689500920e-01  2.8500344140068270e+00 8.0065323050055842e-02 -5.1526283769240233e-01 8.0065323050055939e-02 -1.6230112162861663e+00 -1.5167249217463563e+00 -5.1526283769240233e-01 -1.5167249217463563e+00 5.7220042098469492e-01  2.5413074072534743e+00 -4.9186203033965237e-01 -9.4299415113609419e-01 -4.9186203033965248e-01 -2.1996726944714742e+00 -9.6348268594578534e-01 -9.4299415113609419e-01 -9.6348268594578512e-01 1.8937007032203212e+00  1.9657453292290579e+00 -5.5233429116295962e-01 -7.3462540255462117e-01 -5.5233429116295973e-01 -2.1883147782583103e+00 -5.0309881894825248e-01 -7.3462540255462117e-01 -5.0309881894825259e-01 1.9118698479548761e+00  1.2042947721135295e+00 -7.8542293026090293e-01 -1.4697665742750965e-01 -7.8542293026090293e-01 -1.5781756044212987e+00 6.1641479182433911e-01 -1.4697665742750965e-01 6.1641479182433889e-01 1.0945423246889321e+00  1.1513114764075154e+00 -1.3666470712252039e+00 -8.2903633662825718e-04 -1.3666470712252041e+00 -9.6315205761945133e-01 2.0267165348555047e+00 -8.2903633662825978e-04 2.0267165348555047e+00 1.7488624291439916e+00  1.4077204155145981e+00 -1.0242361974408671e+00 -3.6814291912831076e-01 -1.0242361974408671e+00 -1.2216133154941220e+00 2.6236018232122302e+00 -3.6814291912831076e-01 2.6236018232122302e+00 2.7959583498247436e+00  5.4551873364823777e-01 2.4982245144298265e-01 -5.1274420180554348e-01 2.4982245144298265e-01 -2.0207109834793599e-01 2.6598187314937700e+00 -5.1274420180554348e-01 2.6598187314937700e+00 9.5203902101249793e-01  5.6153667088891956e-01 9.5235559402332054e-02 -1.1410846836081481e-01 9.5235559402332012e-02 -3.0539275793322279e-01 2.4443172783638629e+00 -1.1410846836081481e-01 2.4443172783638629e+00 6.4320105901481039e-01  6.6965756065950255e-01 -1.8025409856511218e-01 4.2458637540962252e-01 -1.8025409856511213e-01 -3.8286596512050508e-01 2.3809352908749579e+00 4.2458637540962252e-01 2.3809352908749575e+00 6.4414327366707524e-01  7.8155881028895702e-01 -4.2120789499830258e-01 7.7819898725775605e-01 -4.2120789499830275e-01 -2.5362834757288599e-01 2.1170207748943342e+00 7.7819898725775605e-01 2.1170207748943342e+00 4.1082864092237209e-01  6.1441033339642848e-01 -3.7401686949350677e-01 1.1824652194149567e+00 -3.7401686949350677e-01 -1.9151648691451223e-01 1.9383159720124419e+00 1.1824652194149567e+00 1.9383159720124419e+00 3.4319557380196186e-01  9.9184945658235091e-01 -2.4548752415990860e-01 9.8322431532227761e-01 -2.4548752415990857e-01 7.9610780918689533e-02 1.4436344728084272e+00 9.8322431532227761e-01 1.4436344728084272e+00 -7.2814654622046859e-01  1.0808015619787437e+00 -3.7372892345195469e-01 1.2374431944723017e+00 -3.7372892345195463e-01 1.7741895784871189e-01 8.4551243436817314e-01 1.2374431944723017e+00 8.4551243436817314e-01 -8.8162071566881928e-01  5.4568718923816018e-01 -7.2872000240327706e-01 1.7448679270253684e+00 -7.2872000240327706e-01 5.8091542950413544e-01 7.6634756338140353e-01 1.7448679270253684e+00 7.6634756338140353e-01 -2.5008329301861326e-01  5.8995326539736803e-01 -7.7688286717679256e-01 1.5928621324807428e+00 -7.7688286717679256e-01 9.4091045825234243e-01 1.8661525144448682e-01 1.5928621324807433e+00 1.8661525144448682e-01 -8.3841934520539629e-01  3.2750544088630595e-01 -7.6450203867802979e-01 1.6631163097329045e+00 -7.6450203867802968e-01 1.2950847058094903e+00 -6.0632253960801664e-02 1.6631163097329047e+00 -6.0632253960801664e-02 -8.5679940023784673e-01  -1.5893899553562399e-01 -4.3642672048970399e-01 1.5357242786483938e+00 -4.3642672048970393e-01 1.4611845139096551e+00 -5.0477966967797838e-01 1.5357242786483938e+00 -5.0477966967797838e-01 -5.8238920934103400e-01  -2.9122034021363830e-01 1.1010835937151089e-01 1.5374427231454770e+00 1.1010835937151089e-01 1.2489810877624623e+00 -7.5309553857306955e-01 1.5374427231454770e+00 -7.5309553857306955e-01 -1.5124974360331073e-01  1.7511206791403608e-01 1.6581036514834224e-01 9.7936158264483986e-01 1.6581036514834227e-01 1.3295906541472680e+00 -8.8239356749236264e-01 9.7936158264483963e-01 -8.8239356749236264e-01 -1.0090865904182702e+00  3.2183162221564426e-01 -6.2222691502414229e-01 -2.5869313562810908e-01 -6.2222691502414229e-01 1.5317250530285222e+00 -1.3093386276974648e+00 -2.5869313562810908e-01 -1.3093386276974648e+00 -1.4427527266933944e+00  -1.8036791914980002e-01 5.1877618949913096e-01 7.4854768685325224e-01 5.1877618949913096e-01 1.0020981340155326e+00 -1.1678915938477183e+00 7.4854768685325224e-01 -1.1678915938477183e+00 -2.3085970932879943e-01  1.6015982331249450e+00 -6.7849972640932887e-01 8.9337784925063024e-01 -6.7849972640932921e-01 -1.5303143449165888e+00 5.4835845048772125e-01 8.9337784925063024e-01 5.4835845048772125e-01 1.0257189421373860e+00  1.6639531290537519e+00 -7.4571245688799193e-01 9.5085649770863545e-01 -7.4571245688799204e-01 -1.7135774536829838e+00 1.6381160677156600e-02 9.5085649770863545e-01 1.6381160677156600e-02 1.0984646332713193e+00  2.1633495793667969e+00 -1.2500504540875350e+00 1.0443654767518000e+00 -1.2500504540875350e+00 -2.0161798401727227e+00 -1.6474484221409438e-01 1.0443654767518000e+00 -1.6474484221409433e-01 1.8102684420949693e+00  2.9517290010216142e+00 -1.2064408790343542e+00 1.1424658931672274e+00 -1.2064408790343542e+00 -2.3367444946527289e+00 2.6288255825159212e-01 1.1424658931672274e+00 2.6288255825159212e-01 2.3028189643596293e+00  2.7048366786478972e+00 -1.0599617284813034e+00 1.0945555582812874e+00 -1.0599617284813034e+00 -2.2792339419830521e+00 4.8886939812427105e-01 1.0945555582812874e+00 4.8886939812427105e-01 2.2682932477567719e+00  2.4287536209536182e+00 -7.8392045947025846e-01 8.4364212591617527e-01 -7.8392045947025846e-01 -2.3468595847897631e+00 4.1346658401006747e-01 8.4364212591617527e-01 4.1346658401006747e-01 2.2166360436787471e+00  1.8004847200554241e+00 -6.5279986019704206e-01 6.1913629717486895e-01 -6.5279986019704206e-01 -2.2342893451051284e+00 1.7688778673837874e-01 6.1913629717486895e-01 1.7688778673837874e-01 2.2562052868213036e+00  1.2210960854476931e+00 -6.0467213701015254e-01 1.1425995861916864e+00 -6.0467213701015254e-01 -1.9401852136064506e+00 -2.0381030251879201e-01 1.1425995861916864e+00 -2.0381030251879201e-01 2.0713651762037792e+00  8.1645195576120622e-01 -2.5195967788914436e-01 1.2918398240832611e+00 -2.5195967788914436e-01 -6.1898723624876728e-01 -7.7898882614658674e-02 1.2918398240832611e+00 -7.7898882614658674e-02 -6.3988733474947381e-03  3.0434882904221996e+00 9.5910927621110398e-01 -7.0056360264070994e-01 9.5910927621110420e-01 -1.9447237719952233e+00 -1.2000559743681256e+00 -7.0056360264070983e-01 -1.2000559743681256e+00 9.4811665837591175e-01  2.6969214601657119e+00 2.4076666503843978e+00 -1.8809796880425714e-01 2.4076666503843973e+00 -1.1613940484340328e+00 -1.3165823118545117e+00 -1.8809796880425705e-01 -1.3165823118545117e+00 1.0342063512490951e+00  1.0588321488596539e+00 2.7651928372595744e+00 1.9510339265817336e-01 2.7651928372595744e+00 -8.5356133491979666e-02 -1.2898781549295153e+00 1.9510339265817359e-01 -1.2898781549295153e+00 1.3064704880639684e+00  -5.3927979194870423e-01 2.6795248833707763e+00 5.1924510453395378e-01 2.6795248833707763e+00 1.4679416264487777e+00 -1.1983931791086786e+00 5.1924510453395367e-01 -1.1983931791086786e+00 1.4306294190662354e+00  -1.5589266752571560e+00 1.6065519507991814e+00 7.6396478761609610e-01 1.6065519507991814e+00 1.8538586110687709e+00 -1.1837028491476123e+00 7.6396478761609610e-01 -1.1837028491476123e+00 1.6092075236416941e+00  -1.7361218764892123e+00 5.5961511717923595e-01 1.1400699333433191e+00 5.5961511717923595e-01 2.3029466887743335e+00 -8.5403958392472723e-01 1.1400699333433191e+00 -8.5403958392472723e-01 1.0814912572286464e+00  -1.3759136354706349e+00 -5.9140148587345731e-01 1.3522050690940526e+00 -5.9140148587345742e-01 1.8731319194176201e+00 -5.1601117994682266e-01 1.3522050690940526e+00 -5.1601117994682266e-01 7.1361409939870801e-01  -1.3824239960165798e+00 -8.5512576316022593e-01 1.0214229631645571e+00 -8.5512576316022582e-01 1.3030672678072144e+00 -4.7887261937311160e-01 1.0214229631645571e+00