<?xml version="1.0"?>
<VTKFile type="UnstructuredGrid"  version="0.1"  >
<UnstructuredGrid>
<Piece  NumberOfPoints="1268" NumberOfCells="4847">
<Points>
<DataArray  type="Float64"  NumberOfComponents="3"  format="ascii">1.994716987487452 0.01317707561264319 -1.202466945460223e-11  1.374072606111497 -0.08614134488653273 -5.388997575085332  -1.285941478930618 0.1916557790035214 -5.691288663606836  -1.59032616235459 -0.4515196446136259 1.626303258728257e-17  0.4950030257755884 2.521650519233041 -5.495391852657774  -0.4107718940653654 -2.429115409112172 -5.58531208084276  -0.9314707163843408 -3.006923447963563 4.87890977618477e-17  1.161824811771535 2.948440156756841 -3.391384395534658e-14  2.146749234505421 0.002696741478414759 -0.5615078450779066  2.330988047973839 -0.000873250973709995 -1.113141311680313  2.540713632977715 -0.1384292375506191 -1.637427654548237  2.645241452520652 -0.2872312815961211 -2.18637082393926  2.504842461151312 -0.2752146673621067 -2.746850782899552  2.287876352721185 -0.2088259978706829 -3.283011632728322  2.137771360922677 -0.2093380261300688 -3.844996501809416  1.970142554575494 -0.2193701374385486 -4.401638277082749  1.701580801829277 -0.1696632515169769 -4.915066532844666  1.398049690886424 0.4419377546899956 -5.387643705321969  1.183972204621215 0.9208338616597355 -5.413149504812257  0.7621482426349403 1.234356207118232 -5.461782499987256  0.2539805730796886 1.370727420898931 -5.519751404145364  -0.2689415860383004 1.319053689498898 -5.578906487138381  -0.7357170559581984 1.076180709179107 -5.631191713357971  -1.086003096318238 0.6812820615514149 -5.669884670156524  -1.65706961757681 -0.5275128747266272 -0.6240725009925172  -1.829082870387909 -0.8347372240299333 -1.153553189134448  -2.030635262011336 -1.097965926806997 -1.693320688638939  -2.148557703924963 -0.9683820133813712 -2.295450526931833  -2.119047321408695 -0.7521727279271558 -2.890676896601294  -1.972500555455803 -0.7106310836492745 -3.509380855831461  -1.885028119342598 -0.4902108162504233 -4.093718100793141  -1.832050776792238 -0.1313823297003599 -4.617858136599065  -1.636180550340053 0.1151199882480144 -5.165527944859976  -1.540434086810702 0.1014447694855235 -7.644826989049428e-17  -1.339902801239663 0.6191128040412099 2.218327606354497e-17  -0.9949589579071262 1.053322092476122 2.12059320661159e-17  -0.5243975458638882 1.346285776146202 7.754217898549941e-16  0.01399251627036286 1.481823287560149 3.252316763596149e-17  0.5696211504784076 1.47677978548424 -7.207855520904863e-17  1.105448032340458 1.331487337928338 1.951563910473908e-16  1.561367740818086 1.018090979386763 -2.179459114756194e-16  1.860006992193919 0.551530302300456 1.369433074745588e-16  -0.152869286718376 2.506583809965366 -5.568804938302105  -0.7781210310064858 2.335338381675429 -5.639249366957451  -1.340550096787874 2.011723800088065 -5.702178028336585  -1.803922993566052 1.555830170950866 -5.753534898075912  -2.144678763029901 1.000979069722826 -5.790734833138769  -2.346903237737564 0.3811866585909049 -5.812061421922149  -2.406990243842066 -0.2684488461825228 -5.817196438260218  -2.318433628103212 -0.9144163570965761 -5.805488779558074  -2.059391262210163 -1.511004864267824 -5.774580158166454  -1.615755841275718 -1.983465489741105 -5.72306417450185  -1.043145925381342 -2.287058241276404 -5.657361969815248  -0.6986882361605687 -2.420627649803484 -5.024556445072709  -0.8272574030199392 -2.685291244074475 -4.476216325063944  -0.8113210073272845 -3.118860027310894 -4.01596683617901  -0.7618552434953355 -3.481598098596065 -3.504026669625047  -0.7509882165597778 -3.609083979854663 -2.886473298216772  -0.7986167670519319 -3.732483084086931 -2.268445488219849  -0.8276969497603353 -3.810997815301134 -1.64593496945388  -0.7425506523451623 -3.557242155569485 -1.078322423839125  -0.7147449622328144 -3.21189056194362 -0.5511080601316157  -1.482234509376526 -2.778582553401298 -5.854479658363816e-16  -1.970737176894139 -2.437284655419533 2.764697292186607e-16  -2.362818572203899 -1.988727212877528 2.439101268600111e-16  -2.642390785384022 -1.462244173776716 5.051059276813266e-16  -2.812149102113852 -0.89052423419162 2.276851973687203e-16  -2.877946727920729 -0.2976446157883296 -1.219909928720168e-16  -2.842947107925845 0.2978601752284433 4.065446096494693e-17  -2.70313036896374 0.8776122116387211 -5.041496169361013e-16  -2.452324348076021 1.418519584933707 4.379274460317988e-16  -2.098265626135573 1.898294456130726 1.951060033519619e-16  -1.658391347368763 2.301023318502569 -1.789574489620802e-16  -1.154148079923361 2.619757341302747 -2.081203863085907e-15  -0.6042202207747882 2.851073703499478 -3.577841418755692e-16  -0.02416138323675775 2.990516581461941 4.065982498622179e-16  0.5710641261211448 3.028216945076794 -1.46882551317968e-16  0.6414151130412097 2.696325287154043 -4.983333021490838  0.771852374565919 2.778456367279237 -4.445188759107248  0.8805845204306011 2.73078881179073 -3.897720120696569  0.9481597620953167 2.69798349057175 -3.343104559074628  0.9815370707090804 2.778214865778854 -2.789250505759619  1.013475345489448 2.861817704396183 -2.235671116027784  1.055849759321274 2.898356228459238 -1.677594140621302  1.093646323460014 2.92793989028903 -1.118725590781912  1.124098871622056 2.957526991478201 -0.5594169689370629  0.2477015793419729 -2.415655802610486 -5.510682951113449  0.8844491790088972 -2.245867158009595 -5.438931443942415  1.464891069119211 -1.932330028996181 -5.373934600293736  1.955087092649627 -1.489613175355717 -5.319502697776375  2.318355026965356 -0.937054784961175 -5.279744576064058  2.524994411863564 -0.307899182343253 -5.257941630215678  2.574632820450045 0.3531084349228537 -5.254020561031156  2.465743861849647 1.006614152640354 -5.268052816559671  2.183897076015212 1.604484044160622 -5.301550147358176  1.722560240631265 2.07491696755195 -5.35506775502591  1.13806318635062 2.378906583716481 -5.422118662603529  1.742182153284979 2.73179858498085 5.854691697147836e-16  2.262480931380501 2.395264875892136 -2.601681534737615e-16  2.698000706832733 1.954727370266727 -3.903113804560263e-16  3.021530388777258 1.426473918441798 1.707421408502106e-16  3.223363606607101 0.8405687193648443 -2.844806418042028e-16  3.305434793487241 0.2261994274297442 -4.472186606099012e-16  3.269241566985055 -0.3926051469820059 3.171555149681837e-16  3.113478077610213 -0.9924495549400153 3.510830505762065e-16  2.840400132149515 -1.548806515270482 -1.707368614952523e-16  2.466120284856568 -2.042983582774378 9.732831365154574e-17  2.008125599488538 -2.460814027017948 -3.577575055983979e-16  1.482521285196868 -2.789563899556613 -4.886146623064541e-17  0.9057866143556688 -3.01678997208197 -2.439392613813594e-16  0.2964958724913082 -3.130681163554852 3.414395345104792e-16  -0.32338307292875 -3.126978161260848 2.926910878106614e-16  -1.29067345658392 -0.3506098753383553 -5.690421630247788  -1.068897680254163 -0.8451623229646739 -5.663999894259847  -0.6782440885714781 -1.219621806060448 -5.6187489875115  -0.168757542531344 -1.390394566692369 -5.560546895724229  0.3611301401510615 -1.294122251639114 -5.500717901478111  0.8191548613516448 -1.005201308695582 -5.449538098373106  1.16817203978903 -0.5892762115769014 -5.411042670828763  1.960898302630318 -0.551652302616722 -8.131516293641286e-17  1.751009740180289 -1.077278642631261 7.445724005953314e-16  1.394016468000002 -1.516729095803803 1.136104663605282e-15  0.9227767039454898 -1.830301465573364 3.434443593283319e-16  0.3780412068884804 -1.984007749105097 8.617772484356591e-16  -0.1885780664025548 -1.977994130030172 2.357202029695971e-16  -0.7327557451871473 -1.821291124380143 1.942410916395698e-17  -1.191068596016128 -1.491774666596192 2.975009434367945e-16  -1.480405544894888 -1.006855825633415 6.954512630084263e-16  -1.812414118534285 0.2561131097252937 -2.664867827914479  2.421751940242729 0.6298287624476981 -1.933377861698098  0.7556418177061754 1.42269463362527 -4.617654324361507  0.003134751711410342 1.574821943356493 -0.9318675177876981  1.015098001669947 1.51699057942374 -0.9441494884276413  0.6193243625380082 1.764115149411371 -1.862230514405671  -0.4757031201037318 1.549728101933577 -1.958273018773558  0.1126459993007786 1.698838152590054 -2.957602797129454  -0.3405660022430232 1.569615851499001 -4.678135257405353  1.818199099779932 0.7365610114574719 -3.763003518505052  -0.9541815370276669 1.23451227632913 -2.875526912859068  -1.269464226480212 1.016489154450913 -4.672047638709048  1.301562892980348 1.557566760682666 -2.802482532053872  -0.7813756340336595 1.414221906310649 -3.725761628685261  -1.58370798409762 0.5643609111372817 -3.581008460136619  -0.988817348255397 1.158392548936659 -1.014254585170146  -1.607700527190565 0.2800106654898483 -1.030081240453645  -1.388203055800784 0.7951310659851955 -1.943712885648593  0.8261955720421881 1.570157055202129 -3.620947225245673  1.681455131778566 1.410849015379531 -1.876189895849114  1.878739160554727 0.943024132521903 -0.9866418074548234  2.103426639579445 1.000735947836943 -2.593434794762663  1.62623803052506 0.6468498306152269 -4.727220189271843  -1.882943490361709 -0.1546739965127431 -1.761716647663214  0.05868355051519467 1.656538949473053 -3.863342338366238  2.465845305360337 0.2632819454094029 -2.663569745038379  1.994842599423799 0.5019775153043848 -0.4779055074204815  2.1671824130763 0.4980244878585698 -1.027636182799239  1.710213566460811 0.9718796190568162 -0.4957578884333736  1.845584590132108 0.2253887364997403 -4.583879812097906  1.579035044615276 0.2924902970866011 -5.101748935835201  1.409777182251665 0.7868327264427526 -5.07202467441607  -1.039178737375989 1.089168173550246 -5.170746090958521  -1.377687418630729 0.6683636420802941 -5.233117919580046  -1.641402128985454 0.4875654733502939 -4.648722230221863  -1.765467255797776 -0.2695484060062747 -1.079683539430899  -1.617858736076732 -0.08318463488274264 -0.5123563299218489  -1.474019211051276 0.4496529111656123 -0.5150171376928306  2.417677350191343 0.3274903893149403 -1.506992657970159 
[...]
<PointData  Tensors="stress"> 
<DataArray  type="Float64"  Name="stress"  NumberOfComponents="9" format="ascii">8.1219285051372192e-01 -1.9967924634496775e-01 -5.5626747494852129e+00 -1.9967924634496775e-01 1.9634460126088245e+00 -7.0429196587087994e-01 -5.5626747494852129e+00 -7.0429196587087994e-01 5.9705497873169939e+00  -1.6041114537289640e+00 9.5735766342297046e-01 2.9017398212665610e+00 9.5735766342297035e-01 9.3850105087805549e+00 -1.6425697472008021e+00 2.9017398212665615e+00 -1.6425697472008021e+00 2.4726809800509044e+00  -7.4987059196326744e-01 1.4900087835394153e+00 -3.4640985424991149e+00 1.4900087835394151e+00 9.0584597993792713e+00 1.8423941092455074e+00 -3.4640985424991149e+00 1.8423941092455076e+00 2.2181510471060730e+00  4.1232319294062292e-01 -7.3805867982657691e-01 5.1821633130746827e+00 -7.3805867982657691e-01 1.8031282323174318e+00 -6.3084574779327418e-01 5.1821633130746827e+00 -6.3084574779327418e-01 6.4742930041663502e+00  2.1570519010792824e+00 -2.0014361298115857e-01 1.1358411262332515e+00 -2.0014361298115857e-01 -1.5148472500007135e+00 1.0910453693489235e+00 1.1358411262332515e+00 1.0910453693489235e+00 8.3810319704826786e-01  3.8409817694595243e+00 -1.3858721869181603e-01 -1.0471681614926514e+00 -1.3858721869181595e-01 -2.4132207038746034e+00 -7.4175644412842212e-01 -1.0471681614926514e+00 -7.4175644412842212e-01 1.1432219009543101e+00  5.8367202360513148e-01 2.7769714134746232e-01 -9.9983443525252114e-01 2.7769714134746232e-01 1.8033455164285692e-01 3.4758749966462723e+00 -9.9983443525252114e-01 3.4758749966462723e+00 1.9940009798438494e+00  2.9969459917331009e-01 5.7991584945665586e-01 1.1509052870289633e+00 5.7991584945665586e-01 1.1017465595806983e+00 -1.5762917105488461e+00 1.1509052870289633e+00 -1.5762917105488461e+00 -5.3189188507231466e-01  -2.1000739227982583e+00 -8.5208136191122175e-01 -3.1055363105187803e+00 -8.5208136191122164e-01 5.3056512670384395e+00 -1.6130723384962093e+00 -3.1055363105187803e+00 -1.6130723384962093e+00 4.9538848995774654e+00  -2.4973920770471123e+00 -1.1437481132473344e+00 -2.4890128202884041e+00 -1.1437481132473346e+00 7.0437721206575192e+00 -1.2889201427904164e+00 -2.4890128202884041e+00 -1.2889201427904164e+00 4.6291570330493430e+00  -2.9862609039640131e+00 -2.0427872483933954e-01 -2.1553733172318026e+00 -2.0427872483933945e-01 7.6962440055265047e+00 -7.1201352026833065e-01 -2.1553733172318026e+00 -7.1201352026833076e-01 5.1859972441511717e+00  -3.3773020368654803e+00 5.3618512729809731e-01 3.6583310870202009e-02 5.3618512729809731e-01 7.5465602377945116e+00 -1.1178592218440424e+00 3.6583310870202015e-02 -1.1178592218440424e+00 6.1239861518568715e+00  -2.5296135341065513e+00 -8.6725039388830971e-02 2.5181274852475628e+00 -8.6725039388830971e-02 8.7393041134070675e+00 -1.4470500181301793e+00 2.5181274852475628e+00 -1.4470500181301789e+00 4.4023593695079146e+00  -2.3814517547094258e+00 -9.1912575767091031e-01 2.2322970896068508e+00 -9.1912575767091031e-01 9.6861790614680547e+00 -5.1833991636128129e-01 2.2322970896068508e+00 -5.1833991636128129e-01 3.1235007702452502e+00  -2.6219377271654576e+00 -3.1767265917368098e-01 1.9593199235495748e+00 -3.1767265917368093e-01 9.9370706641583730e+00 -3.2223226767860763e-01 1.9593199235495748e+00 -3.2223226767860763e-01 3.2606942482473062e+00  -2.2735951497845184e+00 1.4772975966574639e-01 2.5709801544921800e+00 1.4772975966574639e-01 9.4245360943277827e+00 -8.5336889718702547e-01 2.5709801544921800e+00 -8.5336889718702547e-01 3.1328857114844619e+00  -1.3246902874755340e+00 6.8878526598852730e-01 3.3454201991780868e+00 6.8878526598852730e-01 9.3213783314623857e+00 -1.1400190972419935e+00 3.3454201991780868e+00 -1.1400190972419935e+00 2.5635998074318476e+00  -9.9283269434005694e-01 -2.6667573116738152e+00 3.5650670489190119e+00 -2.6667573116738152e+00 7.9566185031672125e+00 -3.0980712068054223e-01 3.5650670489190106e+00 -3.0980712068054217e-01 3.1631660905345771e+00  2.3152292982073819e+00 -5.3903536249337316e+00 2.8396947981634697e+00 -5.3903536249337316e+00 4.3273369282944989e+00 1.1241105173297479e+00 2.8396947981634697e+00 1.1241105173297474e+00 3.5452589115260564e+00  6.2093590232719400e+00 -4.2554716229396705e+00 2.1661029460418249e+00 -4.2554716229396696e+00 -1.9639484241206964e-01 2.2544788575352297e+00 2.1661029460418249e+00 2.2544788575352306e+00 3.9869248599730582e+00  7.8976380236680486e+00 -9.9624634714767679e-01 1.3418656329880496e+00 -9.9624634714767679e-01 -1.8642419319305847e+00 3.2880813602183054e+00 1.3418656329880496e+00 3.2880813602183054e+00 4.1061353616952587e+00  7.3540977644428640e+00 2.3695632098755541e+00 -1.5110353300899310e-01 2.3695632098755541e+00 -8.6639358106930919e-01 3.9524149386560619e+00 -1.5110353300899312e-01 3.9524149386560614e+00 3.8844942027251461e+00  4.5327141345600541e+00 4.5514846907418738e+00 -1.4265410075540830e+00 4.5514846907418729e+00 2.2583769238789189e+00 3.7344414573921969e+00 -1.4265410075540830e+00 3.7344414573921969e+00 3.3114439929173938e+00  1.3096260945587779e+00 4.1711391584367856e+00 -2.5802102727465015e+00 4.1711391584367838e+00 6.0659928637175984e+00 3.0944692150734814e+00 -2.5802102727465015e+00 3.0944692150734814e+00 2.8651694922657236e+00  -2.5483800936961329e+00 -3.2102429036719310e-01 2.8549609805560929e+00 -3.2102429036719310e-01 4.6570667954023754e+00 2.8810980568191841e-01 2.8549609805560929e+00 2.8810980568191841e-01 5.1990966392485829e+00  -2.4940587194367190e+00 -7.5124517201023355e-01 2.5594873759913677e+00 -7.5124517201023355e-01 6.6265524747408220e+00 1.9195719226118046e-01 2.5594873759913677e+00 1.9195719226118038e-01 3.9782826557689268e+00  -2.8290109522025570e+00 -7.7428009263074260e-01 2.2420463504637627e+00 -7.7428009263074260e-01 7.0839246433452034e+00 6.0985401967467179e-01 2.2420463504637627e+00 6.0985401967467168e-01 5.0219990333150166e+00  -3.4169583564404866e+00 -3.4927326305877143e-01 4.5589306841606958e-01 -3.4927326305877143e-01 7.8420461226060318e+00 1.1056092671673965e+00 4.5589306841606958e-01 1.1056092671673965e+00 5.6358771301721484e+00  -3.2537626979747971e+00 7.3397069198389717e-02 -9.5312143152267736e-01 7.3397069198389717e-02 8.5539503228396150e+00 1.8238896344885933e+00 -9.5312143152267736e-01 1.8238896344885933e+00 5.1279087582195535e+00  -2.8943499765346425e+00 -4.5927485685620884e-01 -1.3159370330851472e+00 -4.5927485685620884e-01 9.2636756649760681e+00 2.1386320544268749e+00 -1.3159370330851472e+00 2.1386320544268749e+00 3.9435955045410247e+00  -3.0397828081524718e+00 -2.7915646329708788e-01 -9.8717598706062948e-01 -2.7915646329708788e-01 9.2304090396053180e+00 2.4003994669923410e+00 -9.8717598706062948e-01 2.4003994669923410e+00 4.2085133275082409e+00  -3.0462608047803910e+00 8.8118520161325176e-01 -1.3153638117177808e+00 8.8118520161325176e-01 8.8730234392380893e+00 2.0976233892866500e+00 -1.3153638117177808e+00 2.0976233892866500e+00 4.8449244453165479e+00  -1.9872028605677272e+00 1.2505448868905293e+00 -2.7799075310478329e+00 1.2505448868905291e+00 8.7346009289917887e+00 2.1771041580838628e+00 -2.7799075310478334e+00 2.1771041580838628e+00 4.0450939415621425e+00  -9.1122062560151651e-02 -1.7572785364563519e-02 4.9955648384288418e+00 -1.7572785364563449e-02 2.0563999842884817e+00 -1.2903903355357997e+00 4.9955648384288418e+00 -1.2903903355357997e+00 6.9063503045889005e+00  1.4544264486021988e-01 6.3565529765641537e-01 4.2434641616707491e+00 6.3565529765641537e-01 1.7130695029089931e+00 -2.7312022366055437e+00 4.2434641616707491e+00 -2.7312022366055442e+00 6.9315999594821465e+00  6.0476421791431811e-01 1.1990368497771469e+00 3.5358192192092952e+00 1.1990368497771469e+00 1.1714996163602958e+00 -3.5780230556167765e+00 3.5358192192092948e+00 -3.5780230556167756e+00 7.2231186759274753e+00  1.4790193538972776e+00 9.3613582811452822e-01 2.0952746551388866e+00 9.3613582811452845e-01 4.6737748539241158e-01 -4.4521897302947417e+00 2.0952746551388866e+00 -4.4521897302947417e+00 7.3064902286338267e+00  1.9158122273899036e+00 6.4455153972210510e-01 1.2753776908731744e+00 6.4455153972210510e-01 3.3367376519374464e-02 -4.8726723244643830e+00 1.2753776908731744e+00 -4.8726723244643830e+00 7.5920814323696328e+00  2.0741147923635661e+00 7.1859855303421899e-02 -5.4214117803208639e-01 7.1859855303421899e-02 3.9505103439139424e-03 -5.0782890514322698e+00 -5.4214117803208650e-01 -5.0782890514322698e+00 7.8485963531654344e+00  2.0400488335004496e+00 -3.8350633334467904e-01 -1.7184271913928868e+00 -3.8350633334467893e-01 1.3552798164695637e-01 -4.9799589035933582e+00 -1.7184271913928868e+00 -4.9799589035933582e+00 6.8623440864092116e+00  1.6154558471513918e+00 -1.0463110272269680e+00 -3.9440956514084671e+00 -1.0463110272269680e+00 9.6564550613700340e-01 -3.6035559783711530e+00 -3.9440956514084671e+00 -3.6035559783711530e+00 7.5028341104667051e+00  6.2741747738607179e-01 -8.6831149676850461e-01 -5.0527224394903802e+00 -8.6831149676850461e-01 1.5872696582925649e+00 -2.0409647804320779e+00 -5.0527224394903802e+00 -2.0409647804320779e+00 8.1525311864690977e+00  1.8980466629990882e+00 7.0216299743728161e-01 6.3083656257985254e-01 7.0216299743728161e-01 -1.3482221577830247e+00 1.4939934029206638e+00 6.3083656257985254e-01 1.4939934029206643e+00 9.4560429877631458e-01  1.6951774112159486e+00 1.4714466669828945e+00 3.2065481314959932e-01 1.4714466669828945e+00 -9.2614135115708052e-01 1.5988102232343502e+00 3.2065481314959932e-01 1.5988102232343502e+00 8.8828965276009852e-01  5.6288186256505257e-01 1.6979933046561697e+00 -2.3849380204762993e-01 1.6979933046561690e+00 -1.1208324063946297e-01 1.6807571047094858e+00 -2.3849380204762993e-01 1.6807571047094858e+00 1.0158107647840713e+00  -1.1303492807671117e-01 1.8611839296549524e+00 -9.0715050542030595e-01 1.8611839296549524e+00 1.3698347497429897e+00 1.5096869470729053e+00 -9.0715050542030595e-01 1.5096869470729053e+00 5.1603564792501300e-01  -8.7530763687258728e-01 1.2054101256143042e+00 -1.2689301035556289e+00 1.2054101256143039e+00 2.2572852748871148e+00 1.3647195229976883e+00 -1.2689301035556289e+00 1.3647195229976887e+00 4.3835471262899955e-01  -1.3641557437861551e+00 4.0307158463091070e-01 -1.5086657771991445e+00 4.0307158463091053e-01 2.4309074725152628e+00 9.5259980127183985e-01 -1.5086657771991445e+00 9.5259980127183974e-01 7.2579976075823505e-01  -1.1536112071290696e+00 -4.6271309950685535e-01 -1.8776826778311435e+00 -4.6271309950685507e-01 2.4811704954900331e+00 6.0655235498013693e-01 -1.8776826778311437e+00 6.0655235498013682e-01 6.9590597049074499e-01  -5.6706195260554371e-01 -1.5450828167697666e+00 -1.6164910606809839e+00 -1.5450828167697666e+00 1.8758808983021469e+00 2.8422711265897783e-02 -1.6164910606809837e+00 2.8422711265897745e-02 2.9387361653744343e-01  4.8323904048669181e-01 -2.0316282079861443e+00 -1.7250828835692682e+00 -2.0316282079861439e+00 4.4100636554552208e-01 1.4304493997384826e-01 -1.7250828835692680e+00 1.4304493997384821e-01 6.7052905127629425e-01  1.1894511463924977e+00 -8.8215187511540594e-01 -1.5905079838691283e+00 -8.8215187511540649e-01 -1.3036507057681124e+00 -5.1475346844194081e-01 -1.5905079838691283e+00 -5.1475346844194059e-01 1.0612207895098003e+00  2.9042253373865190e+00 -1.2754154391340411e+00 -1.2316500569959430e+00 -1.2754154391340411e+00 -1.7727130996524083e+00 -8.6702168785340616e-01 -1.2316500569959430e+00 -8.6702168785340616e-01 9.5281366543054846e-01  5.1163932943148032e+00 -8.3809947391807160e-01 -1.4508561484150344e+00 -8.3809947391807160e-01 -2.3312063274446704e+00 -1.9710759968753249e+00 -1.4508561484150344e+00 -1.9710759968753244e+00 2.6215549575761310e+00  5.0936804729527676e+00 -5.9897219611828900e-01 -1.2905844827908204e+00 -5.9897219611828900e-01 -9.4588035993882591e-01 -3.0872549602988868e+00 -1.2905844827908211e+00 -3.0872549602988868e+00 1.5638274339448621e+00  4.0432916730922654e+00 -1.5112412400474698e-01 -7.2187250108674950e-01 -1.5112412400474690e-01 -8.6702966579951524e-01 -2.6181426083612425e+00 -7.2187250108674939e-01 -2.6181426083612425e+00 3.6751093140905244e-01  3.3475566977984670e+00 6.8404682561431498e-04 -5.7016115376732757e-01 6.8404682561420233e-04 -1.7906000502606427e+00 -1.7697425953295971e+00 -5.7016115376732757e-01 -1.7697425953295971e+00 9.0055847566831981e-01  2.9916014205860999e+00 -6.0742860379826302e-01 -9.7566620276649496e-01 -6.0742860379826302e-01 -2.4095030620793390e+00 -1.1180993725874762e+00 -9.7566620276649496e-01 -1.1180993725874762e+00 2.3809139784238953e+00  2.3367904827868355e+00 -6.5233511599725180e-01 -7.8267689234615589e-01 -6.5233511599725180e-01 -2.4560494440570473e+00 -5.4982529350753639e-01 -7.8267689234615589e-01 -5.4982529350753639e-01 2.4756048310075904e+00  1.4871312350614754e+00 -9.6287676312820381e-01 -1.3961034588561394e-01 -9.6287676312820381e-01 -1.8295263075966810e+00 7.7147881098871363e-01 -1.3961034588561394e-01 7.7147881098871385e-01 1.5204772756335663e+00  1.4852485129654618e+00 -1.4747401554678092e+00 -7.2136935718296984e-03 -1.4747401554678092e+00 -1.1316173599851129e+00 2.3043104136277233e+00 -7.2136935718297036e-03 2.3043104136277233e+00 2.2804855432020230e+00  1.7085707378813657e+00 -1.2018079484717741e+00 -2.6254689181354718e-01 -1.2018079484717741e+00 -1.2024084479047288e+00 3.0154227952064350e+00 -2.6254689181354718e-01 3.0154227952064350e+00 3.4563846340211253e+00  6.0302599504264509e-01 2.0623451686583813e-01 -3.5358024289208961e-01 2.0623451686583813e-01 -5.3702337637681855e-02 3.2909659947169261e+00 -3.5358024289208961e-01 3.2909659947169261e+00 1.5041866974834428e+00  5.9655403649789962e-01 6.7457039251584833e-02 1.2089762759573774e-01 6.7457039251584833e-02 -1.9397246932335324e-01 3.0236303287147628e+00 1.2089762759573759e-01 3.0236303287147628e+00 1.1312345708300728e+00  7.0521008502288218e-01 -1.7742152142739723e-01 7.5125989445788355e-01 -1.7742152142739723e-01 -2.7472309422697699e-01 2.9066340344043780e+00 7.5125989445788355e-01 2.9066340344043780e+00 1.1327079167160667e+00  8.1598648819205410e-01 -4.3078585470928654e-01 1.1470340516282431e+00 -4.3078585470928654e-01 -1.1222510949008840e-01 2.5963954908465565e+00 1.1470340516282431e+00 2.5963954908465565e+00 8.2943051581873284e-01  6.4339988843375051e-01 -3.6482133561839819e-01 1.6260053972124167e+00 -3.6482133561839819e-01 -9.4815524053567760e-02 2.2880364635755428e+00 1.6260053972124167e+00 2.2880364635755428e+00 7.2436677933444227e-01  1.0612658806991102e+00 -2.4922402928613369e-01 1.4425234552765001e+00 -2.4922402928613369e-01 1.3464260693230182e-01 1.7130986039934133e+00 1.4425234552765001e+00 1.7130986039934133e+00 -5.5722075099271995e-01  1.1500589756215442e+00 -3.8913147859265124e-01 1.7240261407790682e+00 -3.8913147859265113e-01 2.5269151392215056e-01 1.0069006961589793e+00 1.7240261407790682e+00 1.0069006961589793e+00 -7.5180402203363106e-01  6.7377866700503641e-01 -7.5905903470506975e-01 2.3028137917219960e+00 -7.5905903470506975e-01 6.7365430691597084e-01 7.8526753760216872e-01 2.3028137917219960e+00 7.8526753760216872e-01 -1.9698297236572057e-02  7.4450994701582907e-01 -8.1184607226548611e-01 2.0915225917297593e+00 -8.1184607226548611e-01 1.0482536102980140e+00 1.0345693115807175e-01 2.0915225917297593e+00 1.0345693115807175e-01 -7.7602873733012945e-01  4.6766360374853783e-01 -8.3291062154604545e-01 2.1218753944961692e+00 -8.3291062154604545e-01 1.4188034068597701e+00 -2.2781425319037854e-01 2.1218753944961692e+00 -2.2781425319037854e-01 -8.1788726179601368e-01  -8.8205113934086546e-02 -4.9498414754948711e-01 1.9560838636547164e+00 -4.9498414754948711e-01 1.6353093054753580e+00 -8.0400756657363270e-01 1.9560838636547164e+00 -8.0400756657363270e-01 -4.7708489324631459e-01  -2.3613566155308990e-01 1.1271957677261958e-01 1.9188909785091035e+00 1.1271957677261958e-01 1.4254238997031810e+00 -1.1320710702935306e+00 1.9188909785091035e+00 -1.1320710702935306e+00 7.7860678346240386e-02  2.6915222044091602e-01 1.7398684170949053e-01 1.2397692768462414e+00 1.7398684170949075e-01 1.5119479339872572e+00 -1.2720599212743302e+00 1.2397692768462414e+00 -1.2720599212743302e+00 -9.7769133333697011e-01  3.7014447044052901e-01 -6.7200633432713730e-01 -2.0009049281567046e-01 -6.7200633432713741e-01 1.7939475194045233e+00 -1.7065128753010543e+00 -2.0009049281567046e-01 -1.7065128753010543e+00 -1.5428425308019511e+00  -1.6026565318896180e-01 5.3958832525424016e-01 8.9351180061210655e-01 5.3958832525424016e-01 1.1623866084763184e+00 -1.6160149060983346e+00 8.9351180061210655e-01 -1.6160149060983346e+00 -7.2512526111988412e-02  2.0027230153361719e+00 -8.2668789432178014e-01 8.3688377048403750e-01 -8.2668789432178014e-01 -1.7569163941202879e+00 7.4521314381828296e-01 8.3688377048403750e-01 7.4521314381828208e-01 1.2976031498850842e+00  1.9735138545637596e+00 -8.7160533560813502e-01 1.0487052841787097e+00 -8.7160533560813569e-01 -1.9686614135745428e+00 7.6943793059130738e-02 1.0487052841787097e+00 7.6943793059130516e-02 1.4823208799518628e+00  2.6001794218407590e+00 -1.3800764504891359e+00 1.0982435364579868e+00 -1.3800764504891356e+00 -2.2427228432409905e+00 -1.0108494984768401e-01 1.0982435364579868e+00 -1.0108494984768397e-01 2.2291699440050969e+00  3.4588681738644036e+00 -1.3938010817333519e+00 1.2059550846379392e+00 -1.3938010817333517e+00 -2.4925095815628100e+00 3.2717330263109090e-01 1.2059550846379392e+00 3.2717330263109090e-01 2.7995887161669524e+00  3.1765181548536199e+00 -1.1847388094440461e+00 1.1683694464123364e+00 -1.1847388094440461e+00 -2.4600147069365081e+00 5.9228360225562937e-01 1.1683694464123364e+00 5.9228360225562937e-01 2.7762300928764865e+00  2.8656627090224895e+00 -9.1577931401574986e-01 9.1195615403149666e-01 -9.1577931401574986e-01 -2.5607038502677155e+00 4.7019337723160887e-01 9.1195615403149666e-01 4.7019337723160887e-01 2.7741720941425987e+00  2.2293337587436910e+00 -7.5679319681671875e-01 7.1686044733654486e-01 -7.5679319681671864e-01 -2.5063591946369788e+00 2.1657262216420353e-01 7.1686044733654486e-01 2.1657262216420353e-01 2.8920286795686314e+00  1.5629917470534693e+00 -7.1001773830115966e-01 1.2876774868773992e+00 -7.1001773830115966e-01 -2.2662223988520536e+00 -1.8318662244815603e-01 1.2876774868773992e+00 -1.8318662244815603e-01 2.7611079806747001e+00  9.4918099794835820e-01 -4.1359527222407921e-01 1.4128902413161768e+00 -4.1359527222407921e-01 -9.4837722933625834e-01 -1.2908069265750199e-01 1.4128902413161768e+00 -1.2908069265750199e-01 2.6377033558654872e-01  3.5484745172454160e+00 1.0405254704235514e+00 -7.0635008961547108e-01 1.0405254704235514e+00 -2.1396930677109482e+00 -1.4219801544614339e+00 -7.0635008961547108e-01 -1.4219801544614339e+00 1.3069378070247002e+00  3.1303906342675756e+00 2.6322247675420933e+00 -2.4835008205088568e-01 2.6322247675420933e+00 -1.2856791563134717e+00 -1.5471262044110663e+00 -2.4835008205088568e-01 -1.5471262044110663e+00 1.4402181181276970e+00  1.3618394044824051e+00 3.1054800692936175e+00 2.6552953562820769e-01 3.1054800692936175e+00 -9.6906747665438428e-02 -1.4966421768813636e+00 2.6552953562820769e-01 -1.4966421768813631e+00 1.7856744089005891e+00  -4.2848778037888074e-01 3.0404447727146509e+00 6.0748418056537201e-01 3.0404447727146509e+00 1.7331401057560809e+00 -1.4196987977824191e+00 6.0748418056537201e-01 -1.4196987977824194e+00 1.8123449264440850e+00  -1.6417422900781056e+00 1.8709199175348143e+00 9.6143998890390503e-01 1.8709199175348143e+00 2.2650104638730335e+00 -1.3597435689316022e+00 9.6143998890390503e-01 -1.3597435689316022e+00 2.0043602761476489e+00  -1.9230243179586519e+00 6.8782836449240470e-01 1.3889629852380001e+00 6.8782836449240470e-01 2.8250077331660384e+00 -9.9957704763472022e-01 1.3889629852379992e+00 -9.9957704763472000e-01 1.5066687913164849e+00  -1.5502534382072202e+00 -7.0726041001892725e-01 1.6713722499248211e+00 -7.0726041001892725e-01 2.2981294733307385e+00 -5.8850333662864895e-01 1.6713722499248211e+00 -5.8850333662864907e-01 1.0753975322362215e+00  -1.5236035930543363e+00 -1.0757167972671080e+00 1.3860298885751958e+00 -1.0757167972671078e+00 1.6519800196420300e+00 -4.9163543497324458e-01 1.3860298885751958e+00 -4.9163