<?xml version="1.0"?>
<VTKFile type="UnstructuredGrid"  version="0.1"  >
<UnstructuredGrid>
<Piece  NumberOfPoints="1268" NumberOfCells="4847">
<Points>
<DataArray  type="Float64"  NumberOfComponents="3"  format="ascii">1.994716987487452 0.01317707561264319 -1.202466945460223e-11  1.374072606111497 -0.08614134488653273 -5.388997575085332  -1.285941478930618 0.1916557790035214 -5.691288663606836  -1.59032616235459 -0.4515196446136259 1.626303258728257e-17  0.4950030257755884 2.521650519233041 -5.495391852657774  -0.4107718940653654 -2.429115409112172 -5.58531208084276  -0.9314707163843408 -3.006923447963563 4.87890977618477e-17  1.161824811771535 2.948440156756841 -3.391384395534658e-14  2.146749234505421 0.002696741478414759 -0.5615078450779066  2.330988047973839 -0.000873250973709995 -1.113141311680313  2.540713632977715 -0.1384292375506191 -1.637427654548237  2.645241452520652 -0.2872312815961211 -2.18637082393926  2.504842461151312 -0.2752146673621067 -2.746850782899552  2.287876352721185 -0.2088259978706829 -3.283011632728322  2.137771360922677 -0.2093380261300688 -3.844996501809416  1.970142554575494 -0.2193701374385486 -4.401638277082749  1.701580801829277 -0.1696632515169769 -4.915066532844666  1.398049690886424 0.4419377546899956 -5.387643705321969  1.183972204621215 0.9208338616597355 -5.413149504812257  0.7621482426349403 1.234356207118232 -5.461782499987256  0.2539805730796886 1.370727420898931 -5.519751404145364  -0.2689415860383004 1.319053689498898 -5.578906487138381  -0.7357170559581984 1.076180709179107 -5.631191713357971  -1.086003096318238 0.6812820615514149 -5.669884670156524  -1.65706961757681 -0.5275128747266272 -0.6240725009925172  -1.829082870387909 -0.8347372240299333 -1.153553189134448  -2.030635262011336 -1.097965926806997 -1.693320688638939  -2.148557703924963 -0.9683820133813712 -2.295450526931833  -2.119047321408695 -0.7521727279271558 -2.890676896601294  -1.972500555455803 -0.7106310836492745 -3.509380855831461  -1.885028119342598 -0.4902108162504233 -4.093718100793141  -1.832050776792238 -0.1313823297003599 -4.617858136599065  -1.636180550340053 0.1151199882480144 -5.165527944859976  -1.540434086810702 0.1014447694855235 -7.644826989049428e-17  -1.339902801239663 0.6191128040412099 2.218327606354497e-17  -0.9949589579071262 1.053322092476122 2.12059320661159e-17  -0.5243975458638882 1.346285776146202 7.754217898549941e-16  0.01399251627036286 1.481823287560149 3.252316763596149e-17  0.5696211504784076 1.47677978548424 -7.207855520904863e-17  1.105448032340458 1.331487337928338 1.951563910473908e-16  1.561367740818086 1.018090979386763 -2.179459114756194e-16  1.860006992193919 0.551530302300456 1.369433074745588e-16  -0.152869286718376 2.506583809965366 -5.568804938302105  -0.7781210310064858 2.335338381675429 -5.639249366957451  -1.340550096787874 2.011723800088065 -5.702178028336585  -1.803922993566052 1.555830170950866 -5.753534898075912  -2.144678763029901 1.000979069722826 -5.790734833138769  -2.346903237737564 0.3811866585909049 -5.812061421922149  -2.406990243842066 -0.2684488461825228 -5.817196438260218  -2.318433628103212 -0.9144163570965761 -5.805488779558074  -2.059391262210163 -1.511004864267824 -5.774580158166454  -1.615755841275718 -1.983465489741105 -5.72306417450185  -1.043145925381342 -2.287058241276404 -5.657361969815248  -0.6986882361605687 -2.420627649803484 -5.024556445072709  -0.8272574030199392 -2.685291244074475 -4.476216325063944  -0.8113210073272845 -3.118860027310894 -4.01596683617901  -0.7618552434953355 -3.481598098596065 -3.504026669625047  -0.7509882165597778 -3.609083979854663 -2.886473298216772  -0.7986167670519319 -3.732483084086931 -2.268445488219849  -0.8276969497603353 -3.810997815301134 -1.64593496945388  -0.7425506523451623 -3.557242155569485 -1.078322423839125  -0.7147449622328144 -3.21189056194362 -0.5511080601316157  -1.482234509376526 -2.778582553401298 -5.854479658363816e-16  -1.970737176894139 -2.437284655419533 2.764697292186607e-16  -2.362818572203899 -1.988727212877528 2.439101268600111e-16  -2.642390785384022 -1.462244173776716 5.051059276813266e-16  -2.812149102113852 -0.89052423419162 2.276851973687203e-16  -2.877946727920729 -0.2976446157883296 -1.219909928720168e-16  -2.842947107925845 0.2978601752284433 4.065446096494693e-17  -2.70313036896374 0.8776122116387211 -5.041496169361013e-16  -2.452324348076021 1.418519584933707 4.379274460317988e-16  -2.098265626135573 1.898294456130726 1.951060033519619e-16  -1.658391347368763 2.301023318502569 -1.789574489620802e-16  -1.154148079923361 2.619757341302747 -2.081203863085907e-15  -0.6042202207747882 2.851073703499478 -3.577841418755692e-16  -0.02416138323675775 2.990516581461941 4.065982498622179e-16  0.5710641261211448 3.028216945076794 -1.46882551317968e-16  0.6414151130412097 2.696325287154043 -4.983333021490838  0.771852374565919 2.778456367279237 -4.445188759107248  0.8805845204306011 2.73078881179073 -3.897720120696569  0.9481597620953167 2.69798349057175 -3.343104559074628  0.9815370707090804 2.778214865778854 -2.789250505759619  1.013475345489448 2.861817704396183 -2.235671116027784  1.055849759321274 2.898356228459238 -1.677594140621302  1.093646323460014 2.92793989028903 -1.118725590781912  1.124098871622056 2.957526991478201 -0.5594169689370629  0.2477015793419729 -2.415655802610486 -5.510682951113449  0.8844491790088972 -2.245867158009595 -5.438931443942415  1.464891069119211 -1.932330028996181 -5.373934600293736  1.955087092649627 -1.489613175355717 -5.319502697776375  2.318355026965356 -0.937054784961175 -5.279744576064058  2.524994411863564 -0.307899182343253 -5.257941630215678  2.574632820450045 0.3531084349228537 -5.254020561031156  2.465743861849647 1.006614152640354 -5.268052816559671  2.183897076015212 1.604484044160622 -5.301550147358176  1.722560240631265 2.07491696755195 -5.35506775502591  1.13806318635062 2.378906583716481 -5.422118662603529  1.742182153284979 2.73179858498085 5.854691697147836e-16  2.262480931380501 2.395264875892136 -2.601681534737615e-16  2.698000706832733 1.954727370266727 -3.903113804560263e-16  3.021530388777258 1.426473918441798 1.707421408502106e-16  3.223363606607101 0.8405687193648443 -2.844806418042028e-16  3.305434793487241 0.2261994274297442 -4.472186606099012e-16  3.269241566985055 -0.3926051469820059 3.171555149681837e-16  3.113478077610213 -0.9924495549400153 3.510830505762065e-16  2.840400132149515 -1.548806515270482 -1.707368614952523e-16  2.466120284856568 -2.042983582774378 9.732831365154574e-17  2.008125599488538 -2.460814027017948 -3.577575055983979e-16  1.482521285196868 -2.789563899556613 -4.886146623064541e-17  0.9057866143556688 -3.01678997208197 -2.439392613813594e-16  0.2964958724913082 -3.130681163554852 3.414395345104792e-16  -0.32338307292875 -3.126978161260848 2.926910878106614e-16  -1.29067345658392 -0.3506098753383553 -5.690421630247788  -1.068897680254163 -0.8451623229646739 -5.663999894259847  -0.6782440885714781 -1.219621806060448 -5.6187489875115  -0.168757542531344 -1.390394566692369 -5.560546895724229  0.3611301401510615 -1.294122251639114 -5.500717901478111  0.8191548613516448 -1.005201308695582 -5.449538098373106  1.16817203978903 -0.5892762115769014 -5.411042670828763  1.960898302630318 -0.551652302616722 -8.131516293641286e-17  1.751009740180289 -1.077278642631261 7.445724005953314e-16  1.394016468000002 -1.516729095803803 1.136104663605282e-15  0.9227767039454898 -1.830301465573364 3.434443593283319e-16  0.3780412068884804 -1.984007749105097 8.617772484356591e-16  -0.1885780664025548 -1.977994130030172 2.357202029695971e-16  -0.7327557451871473 -1.821291124380143 1.942410916395698e-17  -1.191068596016128 -1.491774666596192 2.975009434367945e-16  -1.480405544894888 -1.006855825633415 6.954512630084263e-16  -1.812414118534285 0.2561131097252937 -2.664867827914479  2.421751940242729 0.6298287624476981 -1.933377861698098  0.7556418177061754 1.42269463362527 -4.617654324361507  0.003134751711410342 1.574821943356493 -0.9318675177876981  1.015098001669947 1.51699057942374 -0.9441494884276413  0.6193243625380082 1.764115149411371 -1.862230514405671  -0.4757031201037318 1.549728101933577 -1.958273018773558  0.1126459993007786 1.698838152590054 -2.957602797129454  -0.3405660022430232 1.569615851499001 -4.678135257405353  1.818199099779932 0.7365610114574719 -3.763003518505052  -0.9541815370276669 1.23451227632913 -2.875526912859068  -1.269464226480212 1.016489154450913 -4.672047638709048  1.301562892980348 1.557566760682666 -2.802482532053872  -0.7813756340336595 1.414221906310649 -3.725761628685261  -1.58370798409762 0.5643609111372817 -3.581008460136619  -0.988817348255397 1.158392548936659 -1.014254585170146  -1.607700527190565 0.2800106654898483 -1.030081240453645  -1.388203055800784 0.7951310659851955 -1.943712885648593  0.8261955720421881 1.570157055202129 -3.620947225245673  1.681455131778566 1.410849015379531 -1.876189895849114  1.878739160554727 0.943024132521903 -0.9866418074548234  2.103426639579445 1.000735947836943 -2.593434794762663  1.62623803052506 0.6468498306152269 -4.727220189271843  -1.882943490361709 -0.1546739965127431 -1.761716647663214  0.05868355051519467 1.656538949473053 -3.863342338366238  2.465845305360337 0.2632819454094029 -2.663569745038379  1.994842599423799 0.5019775153043848 -0.4779055074204815  2.1671824130763 0.4980244878585698 -1.027636182799239  1.710213566460811 0.9718796190568162 -0.4957578884333736  1.845584590132108 0.2253887364997403 -4.583879812097906  1.579035044615276 0.2924902970866011 -5.101748935835201  1.409777182251665 0.7868327264427526 -5.07202467441607  -1.039178737375989 1.089168173550246 -5.170746090958521  -1.377687418630729 0.6683636420802941 -5.233117919580046  -1.641402128985454 0.4875654733502939 -4.648722230221863  -1.765467255797776 -0.2695484060062747 -1.079683539430899  -1.617858736076732 -0.08318463488274264 -0.5123563299218489  -1.474019211051276 0.4496529111656123 -0.5150171376928306  2.417677350191343 0.3274903893149403 -1.506992657970159 
[...]
<PointData  Tensors="stress"> 
<DataArray  type="Float64"  Name="stress"  NumberOfComponents="9" format="ascii">1.0663220218529414e+00 -1.9658049256118335e-01 -5.9180124096619711e+00 -1.9658049256118335e-01 2.1944191549330241e+00 -8.5050841380120923e-01 -5.9180124096619711e+00 -8.5050841380120923e-01 6.5565886535662843e+00  -1.5171227808660794e+00 1.0282507414746287e+00 3.0243120395047067e+00 1.0282507414746287e+00 1.0045783238097492e+01 -1.7017595205524161e+00 3.0243120395047067e+00 -1.7017595205524163e+00 2.7699481284855914e+00  -5.9757403024196565e-01 1.5913956142192973e+00 -3.6352260754747792e+00 1.5913956142192971e+00 9.6359485229536190e+00 1.9156410751868675e+00 -3.6352260754747787e+00 1.9156410751868675e+00 2.5352383078720844e+00  6.2665002400885983e-01 -7.5614043997430758e-01 5.5262691838226417e+00 -7.5614043997430758e-01 2.0141746188989567e+00 -5.5606318247713538e-01 5.5262691838226417e+00 -5.5606318247713538e-01 7.0961241030543079e+00  2.2825383582046870e+00 -2.1628524283926850e-01 1.1900895323768457e+00 -2.1628524283926845e-01 -1.5687422330951004e+00 1.1950317437247424e+00 1.1900895323768459e+00 1.1950317437247424e+00 9.6485081966156272e-01  4.0435040285644401e+00 -1.4748779397191222e-01 -1.0743959773392222e+00 -1.4748779397191228e-01 -2.5114208144756827e+00 -8.0175913645894537e-01 -1.0743959773392222e+00 -8.0175913645894537e-01 1.3002634441268184e+00  6.1944956762675996e-01 2.2648858234555772e-01 -9.6713535318586086e-01 2.2648858234555772e-01 2.7645156319449432e-01 3.7433940850625631e+00 -9.6713535318586086e-01 3.7433940850625631e+00 2.2855452762095116e+00  3.3007396643924031e-01 5.8548778379962896e-01 1.1984861201569150e+00 5.8548778379962896e-01 1.1509522528074583e+00 -1.7579728797840461e+00 1.1984861201569150e+00 -1.7579728797840461e+00 -4.8508820541540143e-01  -1.9755971252103801e+00 -8.9282282164552773e-01 -3.3344107012639905e+00 -8.9282282164552773e-01 5.7407754379373808e+00 -1.7061627366190844e+00 -3.3344107012639905e+00 -1.7061627366190844e+00 5.3804146343589627e+00  -2.4122113052531220e+00 -1.2173984920500964e+00 -2.6529952505783165e+00 -1.2173984920500964e+00 7.5838948496325100e+00 -1.3304826307965745e+00 -2.6529952505783165e+00 -1.3304826307965745e+00 5.0355619578409296e+00  -2.9326107757869884e+00 -2.1107195256977329e-01 -2.2875784644074653e+00 -2.1107195256977332e-01 8.2345325296820349e+00 -7.2197620014925445e-01 -2.2875784644074653e+00 -7.2197620014925468e-01 5.6252081807030061e+00  -3.3472393628195891e+00 5.6404220567393248e-01 3.7398963987840289e-02 5.6404220567393248e-01 8.0625508750665755e+00 -1.1457122383549028e+00 3.7398963987840282e-02 -1.1457122383549028e+00 6.6076989600075322e+00  -2.4632171286883038e+00 -8.6561262445773335e-02 2.6539185480479421e+00 -8.6561262445773335e-02 9.2902722321013602e+00 -1.4891283655120560e+00 2.6539185480479421e+00 -1.4891283655120560e+00 4.8147785816918560e+00  -2.3207007898452883e+00 -9.4254200702152169e-01 2.3509267755473160e+00 -9.4254200702152169e-01 1.0305174140759824e+01 -5.3146680835461158e-01 2.3509267755473156e+00 -5.3146680835461158e-01 3.4813469233518490e+00  -2.5736946938008898e+00 -3.1200143233577965e-01 2.0580028119576497e+00 -3.1200143233577965e-01 1.0558148389767668e+01 -3.2954911088318067e-01 2.0580028119576497e+00 -3.2954911088318067e-01 3.6247269949207941e+00  -2.2085832762237012e+00 1.7957043244940854e-01 2.7018740929993657e+00 1.7957043244940854e-01 9.9989226525300960e+00 -8.7890712303683249e-01 2.7018740929993657e+00 -8.7890712303683249e-01 3.4831229061175804e+00  -1.2075332945888171e+00 7.5019495952334203e-01 3.4973976485480276e+00 7.5019495952334203e-01 9.9213765448356614e+00 -1.1807186190143757e+00 3.4973976485480276e+00 -1.1807186190143770e+00 2.8600342787863378e+00  -8.7691614387041050e-01 -2.7719459637488546e+00 3.7211004466547428e+00 -2.7719459637488546e+00 8.5217466089481846e+00 -3.0399680676530633e-01 3.7211004466547428e+00 -3.0399680676530633e-01 3.4913993957264235e+00  2.5867575060373813e+00 -5.6359883848159695e+00 2.9588480918019457e+00 -5.6359883848159686e+00 4.7019584878451131e+00 1.1959136277621316e+00 2.9588480918019457e+00 1.1959136277621316e+00 3.9200080336380023e+00  6.6823785484738405e+00 -4.4676870759041281e+00 2.2507897784765420e+00 -4.4676870759041281e+00 -6.9166818978933665e-03 2.3924251430439374e+00 2.2507897784765420e+00 2.3924251430439374e+00 4.4065749500831384e+00  8.4623290548866059e+00 -1.0639514611023253e+00 1.3838612728737116e+00 -1.0639514611023251e+00 -1.7601872455377627e+00 3.4551884550257466e+00 1.3838612728737114e+00 3.4551884550257492e+00 4.5164020066676471e+00  7.8893744758008220e+00 2.4761276718693708e+00 -1.7624640017849408e-01 2.4761276718693703e+00 -7.0804951650837855e-01 4.1410028999828796e+00 -1.7624640017849411e-01 4.1410028999828814e+00 4.2612790263939262e+00  4.9665647511867279e+00 4.7688717424033369e+00 -1.5334378242942217e+00 4.7688717424033369e+00 2.5285167020900112e+00 3.8983245387915355e+00 -1.5334378242942217e+00 3.8983245387915355e+00 3.7039296097169814e+00  1.6052102057256414e+00 4.3825699420235571e+00 -2.7312646375051020e+00 4.3825699420235580e+00 6.4994780972174180e+00 3.2260569460545248e+00 -2.7312646375051020e+00 3.2260569460545248e+00 3.2019830557754982e+00  -2.4521595177229227e+00 -3.8699396663687935e-01 3.1070906709530908e+00 -3.8699396663687935e-01 5.0742231814115204e+00 3.0339740775686308e-01 3.1070906709530908e+00 3.0339740775686314e-01 5.6558566381059547e+00  -2.4136916631985095e+00 -8.2843872712881828e-01 2.7549184196162608e+00 -8.2843872712881828e-01 7.1341590514647022e+00 2.0753366573508580e-01 2.7549184196162608e+00 2.0753366573508569e-01 4.3824216394901478e+00  -2.7610720844353853e+00 -8.0984926216644559e-01 2.4173084946901020e+00 -8.0984926216644559e-01 7.6111731372561264e+00 6.3118181139321472e-01 2.4173084946901020e+00 6.3118181139321483e-01 5.4483466168039882e+00  -3.3958006000489398e+00 -3.2015731194616737e-01 4.9577434529642850e-01 -3.2015731194616742e-01 8.4018354011778236e+00 1.1469384163833587e+00 4.9577434529642850e-01 1.1469384163833589e+00 6.1031512408667119e+00  -3.2301440317670118e+00 1.1468865025665037e-01 -9.9464818650559950e-01 1.1468865025665037e-01 9.1363432082604650e+00 1.8898484712657531e+00 -9.9464818650559950e-01 1.8898484712657533e+00 5.5649367688653557e+00  -2.8709843080577695e+00 -4.3394221442193831e-01 -1.3751809579879959e+00 -4.3394221442193831e-01 9.8690652755315433e+00 2.2292017371898001e+00 -1.3751809579879959e+00 2.2292017371897996e+00 4.3275057925436364e+00  -3.0359026563975307e+00 -2.5494138252074761e-01 -1.0039160743427777e+00 -2.5494138252074799e-01 9.8445499503060230e+00 2.5056956781556319e+00 -1.0039160743427780e+00 2.5056956781556314e+00 4.6190645984197118e+00  -3.0222111296688356e+00 9.5545574310911840e-01 -1.3407928344852222e+00 9.5545574310911840e-01 9.4539699544951983e+00 2.1941300725405597e+00 -1.3407928344852220e+00 2.1941300725405597e+00 5.2844030678361928e+00  -1.8857868706976020e+00 1.3346632901775688e+00 -2.9131878312027522e+00 1.3346632901775692e+00 9.3037775552460058e+00 2.2618648478668177e+00 -2.9131878312027522e+00 2.2618648478668186e+00 4.4382629044434898e+00  1.4061744766806386e-01 -3.9008924937902652e-02 5.3436389255534600e+00 -3.9008924937902652e-02 2.2603430334480277e+00 -1.3082085198345288e+00 5.3436389255534600e+00 -1.3082085198345295e+00 7.4610391954477286e+00  3.3695002895346171e-01 6.3757717631988775e-01 4.5479891776788781e+00 6.3757717631988775e-01 1.9395519807273525e+00 -2.8486092256085036e+00 4.5479891776788781e+00 -2.8486092256085036e+00 7.5301913486669960e+00  8.1035696565299620e-01 1.1734638464461666e+00 3.8137937099605144e+00 1.1734638464461666e+00 1.3869500000221444e+00 -3.7849104759638346e+00 3.8137937099605144e+00 -3.7849104759638346e+00 7.7919969619809057e+00  1.6860235456828079e+00 9.4354757137794010e-01 2.2960025336884722e+00 9.4354757137794010e-01 6.5875378085264680e-01 -4.6947832994177237e+00 2.2960025336884722e+00 -4.6947832994177237e+00 7.9415330178937253e+00  2.1212109732337940e+00 6.3820964753279996e-01 1.4176076595857499e+00 6.3820964753279996e-01 2.5895537192361123e-01 -5.1792350147323178e+00 1.4176076595857499e+00 -5.1792350147323178e+00 8.1848174330282184e+00  2.2891991508929954e+00 8.8201949885285208e-02 -4.9324330294855756e-01 8.8201949885285208e-02 2.0935855284483243e-01 -5.4029296001802010e+00 -4.9324330294855756e-01 -5.4029296001802019e+00 8.4916580445161305e+00  2.2498276778686161e+00 -3.6649330782794770e-01 -1.7811971040306662e+00 -3.6649330782794770e-01 3.9056426241089681e-01 -5.3420381083332398e+00 -1.7811971040306662e+00 -5.3420381083332398e+00 7.4347516387094341e+00  1.8424693894612920e+00 -1.0546399170854308e+00 -4.0953382681484287e+00 -1.0546399170854308e+00 1.1632306477766907e+00 -3.8934947126381076e+00 -4.0953382681484287e+00 -3.8934947126381076e+00 8.1795393876037146e+00  8.3935430643462694e-01 -8.7320376941601141e-01 -5.2910590015152312e+00 -8.7320376941601152e-01 1.8083820251711851e+00 -2.2788302545142183e+00 -5.2910590015152312e+00 -2.2788302545142183e+00 8.8409800522607345e+00  2.0463244238436573e+00 7.2967245740857944e-01 6.2214386913139141e-01 7.2967245740857944e-01 -1.4228406144228578e+00 1.5837410273895269e+00 6.2214386913139141e-01 1.5837410273895269e+00 1.0750787063518310e+00  1.8013712834766014e+00 1.5500256604805491e+00 2.8847475732409716e-01 1.5500256604805491e+00 -9.2849138154067501e-01 1.6982843838015691e+00 2.8847475732409694e-01 1.6982843838015691e+00 9.7640062633787661e-01  6.5038363839819779e-01 1.8039833760699910e+00 -3.1331079751693530e-01 1.8039833760699910e+00 -8.6342067901300237e-02 1.7744429960633286e+00 -3.1331079751693525e-01 1.7744429960633286e+00 1.1229639279622714e+00  -5.2652636649877939e-02 1.9684326754461590e+00 -9.7499172672843903e-01 1.9684326754461590e+00 1.4500532151281538e+00 1.5954003502641740e+00 -9.7499172672843903e-01 1.5954003502641749e+00 6.0060622984629830e-01  -8.6504319286299280e-01 1.2714423245468709e+00 -1.3610504627141347e+00 1.2714423245468707e+00 2.3673735448436473e+00 1.4336286664040041e+00 -1.3610504627141347e+00 1.4336286664040039e+00 5.1978877977510929e-01  -1.3963907578287731e+00 4.3559061584942205e-01 -1.6113179029301583e+00 4.3559061584942221e-01 2.5785601372075515e+00 9.9164272236815365e-01 -1.6113179029301590e+00 9.9164272236815365e-01 8.2723141536508848e-01  -1.1666850569273592e+00 -4.7630202980672715e-01 -2.0079977952264958e+00 -4.7630202980672715e-01 2.6710961708121963e+00 6.2822122787160506e-01 -2.0079977952264958e+00 6.2822122787160517e-01 7.8873532064989527e-01  -5.5848507607149023e-01 -1.6164048222681693e+00 -1.7288617090365543e+00 -1.6164048222681695e+00 1.9909354079322672e+00 1.5806386248703126e-02 -1.7288617090365543e+00 1.5806386248703126e-02 3.6537698322825746e-01  5.6951244883223406e-01 -2.1586113189327625e+00 -1.8179413538311191e+00 -2.1586113189327620e+00 4.8969687030255865e-01 9.2591653940451268e-02 -1.8179413538311195e+00 9.2591653940451255e-02 7.3637323630782514e-01  1.2920373548733852e+00 -9.7053285164403924e-01 -1.6398470298988741e+00 -9.7053285164403891e-01 -1.3419293327895516e+00 -6.1626359558239141e-01 -1.6398470298988741e+00 -6.1626359558239141e-01 1.1627167474624183e+00  3.0696748831602041e+00 -1.3892525211707958e+00 -1.2430581370701710e+00 -1.3892525211707958e+00 -1.8281917974948336e+00 -9.1543832964975147e-01 -1.2430581370701710e+00 -9.1543832964975147e-01 1.0624158213888126e+00  5.3833243883742146e+00 -8.8081405372320232e-01 -1.4998682947921842e+00 -8.8081405372320254e-01 -2.3337594217192441e+00 -2.0732552743500055e+00 -1.4998682947921842e+00 -2.0732552743500055e+00 2.8143823311037153e+00  5.3607009954885321e+00 -6.6484642498547863e-01 -1.3389732964375343e+00 -6.6484642498547863e-01 -8.9516669437589091e-01 -3.2073697710994096e+00 -1.3389732964375345e+00 -3.2073697710994096e+00 1.7244088088118796e+00  4.2938872708803544e+00 -1.7762082963655459e-01 -7.3281059406280635e-01 -1.7762082963655443e-01 -8.4267091459883336e-01 -2.7553828121249024e+00 -7.3281059406280635e-01 -2.7553828121249024e+00 4.6695580899641198e-01  3.5558814774150931e+00 -4.3059560085726173e-02 -5.8458361972935069e-01 -4.3059560085726062e-02 -1.8473143361857154e+00 -1.8741451025436491e+00 -5.8458361972935047e-01 -1.8741451025436491e+00 1.0538680600299379e+00  3.1826121249416466e+00 -6.5677926380927298e-01 -9.8658903572361145e-01 -6.5677926380927298e-01 -2.4779799123880628e+00 -1.1891051929288996e+00 -9.8658903572361145e-01 -1.1891051929288996e+00 2.5884345856654836e+00  2.4803602713003050e+00 -7.0161530685534690e-01 -7.9110171414876118e-01 -7.0161530685534690e-01 -2.5463142356429040e+00 -5.5951941710732644e-01 -7.9110171414876118e-01 -5.5951941710732644e-01 2.7133224621659440e+00  1.6101084317678678e+00 -1.0317097568621874e+00 -1.3890714232179693e-01 -1.0317097568621876e+00 -1.9278093434859085e+00 8.3270387721050920e-01 -1.3890714232179691e-01 8.3270387721050931e-01 1.7307661836221537e+00  1.6276001631484089e+00 -1.5148479002571880e+00 -5.3616434292028800e-03 -1.5148479002571880e+00 -1.1936346601534589e+00 2.4046264249308846e+00 -5.3616434292028904e-03 2.4046264249308851e+00 2.5071426932465264e+00  1.8392164916160272e+00 -1.2715098490995065e+00 -2.1350011206452224e-01 -1.2715098490995065e+00 -1.1845275472608625e+00 3.1696838750367258e+00 -2.1350011206452219e-01 3.1696838750367258e+00 3.7422477807529089e+00  6.2906121868819764e-01 1.7842337458629481e-01 -2.7045932794000210e-01 1.7842337458629481e-01 2.3898388787295492e-02 3.5406410211752268e+00 -2.7045932794000210e-01 3.5406410211752268e+00 1.7577232353076928e+00  6.0507018434781823e-01 6.0885621701273582e-02 2.3457967584526113e-01 6.0885621701273582e-02 -1.3187224464556463e-01 3.2486911554027849e+00 2.3457967584526113e-01 3.2486911554027849e+00 1.3618227808590426e+00  7.0789670023352058e-01 -1.7065444362488563e-01 8.9003958696456775e-01 -1.7065444362488563e-01 -2.1192196221681639e-01 3.1122272849437640e+00 8.9003958696456775e-01 3.1122272849437640e+00 1.3662018044002646e+00  8.1575266934526069e-01 -4.2729808359363203e-01 1.3065843351827937e+00 -4.2729808359363203e-01 -3.2138492344985552e-02 2.7855353279419708e+00 1.3065843351827937e+00 2.7855353279419708e+00 1.0385793158464458e+00  6.4954341860620468e-01 -3.4677639235604268e-01 1.8103064694379045e+00 -3.4677639235604268e-01 -4.1498037972703725e-02 2.4244955005726858e+00 1.8103064694379045e+00 2.4244955005726858e+00 9.0893243337648988e-01  1.0780760961448315e+00 -2.3567348669597654e-01 1.6494294712778255e+00 -2.3567348669597654e-01 1.6883057455011075e-01 1.8208833337879591e+00 1.6494294712778259e+00 1.8208833337879591e+00 -4.4421355206606861e-01  1.1714764258988135e+00 -3.9100659511584224e-01 1.9371294746174297e+00 -3.9100659511584224e-01 2.8804030589242330e-01 1.0645188931472653e+00 1.9371294746174295e+00 1.0645188931472651e+00 -6.6101403313863782e-01  7.3383235977947880e-01 -7.5575844154595007e-01 2.5423215343656573e+00 -7.5575844154595007e-01 7.1577285359710796e-01 7.8570176496775923e-01 2.5423215343656573e+00 7.8570176496775923e-01 1.0191730880050263e-01  8.1051625928469662e-01 -8.1664074334274905e-01 2.3088150890916870e+00 -8.1664074334274872e-01 1.0800122383554418e+00 5.9419247069878937e-02 2.3088150890916870e+00 5.9419247069878986e-02 -7.0930178356120743e-01  5.3129495020044437e-01 -8.5243299519747306e-01 2.3172762957376327e+00 -8.5243299519747306e-01 1.4600130145988077e+00 -3.0987830807406874e-01 2.3172762957376327e+00 -3.0987830807406874e-01 -7.7742091329633056e-01  -4.3019302685640443e-02 -5.1628368873005026e-01 2.1326940353906783e+00 -5.1628368873005026e-01 1.6933176138410810e+00 -9.4055270107468436e-01 2.1326940353906783e+00 -9.4055270107468436e-01 -4.0926808800458003e-01  -1.9352591582800813e-01 1.0370048507624306e-01 2.0708235419925538e+00 1.0370048507624306e-01 1.4858462218086530e+00 -1.3058123607259819e+00 2.0708235419925538e+00 -1.3058123607259819e+00 2.0025547301055918e-01  3.2461713942973086e-01 1.6881610731759328e-01 1.3507648101449858e+00 1.6881610731759322e-01 1.5714514474347581e+00 -1.4553373583895417e+00 1.3507648101449858e+00 -1.4553373583895417e+00 -9.3001463746380320e-01  3.9380827914491279e-01 -6.8332595572342891e-01 -1.6201910464075336e-01 -6.8332595572342891e-01 1.8948722016993171e+00 -1.8794273963275747e+00 -1.6201910464075336e-01 -1.8794273963275747e+00 -1.5611913951497045e+00  -1.4129233993523482e-01 5.3760006504273261e-01 9.4777758572413628e-01 5.3760006504273261e-01 1.2239551802813498e+00 -1.8144005744322809e+00 9.4777758572413628e-01 -1.8144005744322809e+00 1.5094618354332475e-02  2.1776403801675972e+00 -8.9401894530229353e-01 8.2175308640441924e-01 -8.9401894530229353e-01 -1.8463728666188859e+00 8.2158251627318313e-01 8.2175308640441891e-01 8.2158251627318313e-01 1.4390426313162201e+00  2.1141059570511342e+00 -9.2191488987809633e-01 1.0732672281034188e+00 -9.2191488987809633e-01 -2.0615444685210602e+00 1.1097950338480096e-01 1.0732672281034188e+00 1.1097950338480092e-01 1.6345516132930746e+00  2.7919008144980153e+00 -1.4342057108439523e+00 1.1249548106381657e+00 -1.4342057108439525e+00 -2.3230866738077980e+00 -7.2885234611151775e-02 1.1249548106381657e+00 -7.2885234611151942e-02 2.4099937778020486e+00  3.6702622935633111e+00 -1.4670498022297891e+00 1.2261714529022907e+00 -1.4670498022297889e+00 -2.5439346652621819e+00 3.5761990515729142e-01 1.2261714529022907e+00 3.5761990515729142e-01 3.0110394147550994e+00  3.3734908772893637e+00 -1.2368777992976077e+00 1.1912430162739907e+00 -1.2368777992976074e+00 -2.5203999528035790e+00 6.3510267765247663e-01 1.1912430162739907e+00 6.3510267765247663e-01 2.9886165339086097e+00  3.0445189772516019e+00 -9.7020091140897258e-01 9.3594185406107144e-01 -9.7020091140897258e-01 -2.6330855266231428e+00 4.8999053172724788e-01 9.3594185406107144e-01 4.8999053172724788e-01 3.0128097932679743e+00  2.4145100987184298e+00 -7.9836064457176648e-01 7.5531772620454307e-01 -7.9836064457176648e-01 -2.6017475457922665e+00 2.3122272523304735e-01 7.5531772620454307e-01 2.3122272523304735e-01 3.1641865182436075e+00  1.7143946822672371e+00 -7.5029750749406499e-01 1.3379559187684420e+00 -7.5029750749406510e-01 -2.3796170353636645e+00 -1.8105524142007423e-01 1.3379559187684420e+00 -1.8105524142007423e-01 3.0433333240833238e+00  1.0044647592614608e+00 -4.8481965192297660e-01 1.4523794812050268e+00 -4.8481965192297660e-01 -1.0966571903273030e+00 -1.4827690556238227e-01 1.4523794812050268e+00 -1.4827690556238224e-01 4.1136354053865154e-01  3.7542815483250629e+00 1.0729997270079750e+00 -7.0261716672100305e-01 1.0729997270079750e+00 -2.2046848178809775e+00 -1.5172556855334587e+00 -7.0261716672100305e-01 -1.5172556855334587e+00 1.4614633384249502e+00  3.3047667382332326e+00 2.7283652151466278e+00 -2.6275148160180373e-01 2.7283652151466278e+00 -1.3098864416087104e+00 -1.6479458927056769e+00 -2.6275148160180373e-01 -1.6479458927056769e+00 1.6156376769469620e+00  1.4961271853667408e+00 3.2377210479202341e+00 2.9864824719133282e-01 3.2377210479202341e+00 -9.6786498703892443e-02 -1.5746512188310791e+00 2.9864824719133282e-01 -1.5746512188310791e+00 1.9918313027165075e+00  -3.7584648451405728e-01 3.1782828308936621e+00 6.5731836873270766e-01 3.1782828308936621e+00 1.8559519623820540e+00 -1.5076936129469514e+00 6.5731836873270766e-01 -1.5076936129469514e+00 1.9698992770271768e+00  -1.6610383995898059e+00 1.9749438045736245e+00 1.0453765372299537e+00 1.9749438045736245e+00 2.4501215849870981e+00 -1.4270406538258606e+00 1.0453765372299537e+00 -1.4270406538258606e+00 2.1640127954269044e+00  -1.9797660266388841e+00 7.3297433163126346e-01 1.4946373724665996e+00 7.3297433163126346e-01 3.0495522940162250e+00 -1.0432558786152999e+00 1.4946373724666000e+00 -1.0432558786152999e+00 1.6776535143850035e+00  -1.6013564283457136e+00 -7.6383805515666858e-01 1.7984550792836154e+00 -7.6383805515666880e-01 2.4743772188370983e+00 -6.0601109743989212e-01 1.7984550792836154e+00 -6.0601109743989223e-01 1.2245501017453844e+00  -1.5542946928405144e+00 -1.1641985569745201e+00 1.5339509770560078e+00 -1.1641985569745201e+00 1.8051939514227837e+00 -4.8369358765840509e-01 1.5339509770560078e+00 -4.836935