<?xml version="1.0"?>
<VTKFile type="UnstructuredGrid"  version="0.1"  >
<UnstructuredGrid>
<Piece  NumberOfPoints="1268" NumberOfCells="4847">
<Points>
<DataArray  type="Float64"  NumberOfComponents="3"  format="ascii">1.994716987487452 0.01317707561264319 -1.202466945460223e-11  1.374072606111497 -0.08614134488653273 -5.388997575085332  -1.285941478930618 0.1916557790035214 -5.691288663606836  -1.59032616235459 -0.4515196446136259 1.626303258728257e-17  0.4950030257755884 2.521650519233041 -5.495391852657774  -0.4107718940653654 -2.429115409112172 -5.58531208084276  -0.9314707163843408 -3.006923447963563 4.87890977618477e-17  1.161824811771535 2.948440156756841 -3.391384395534658e-14  2.146749234505421 0.002696741478414759 -0.5615078450779066  2.330988047973839 -0.000873250973709995 -1.113141311680313  2.540713632977715 -0.1384292375506191 -1.637427654548237  2.645241452520652 -0.2872312815961211 -2.18637082393926  2.504842461151312 -0.2752146673621067 -2.746850782899552  2.287876352721185 -0.2088259978706829 -3.283011632728322  2.137771360922677 -0.2093380261300688 -3.844996501809416  1.970142554575494 -0.2193701374385486 -4.401638277082749  1.701580801829277 -0.1696632515169769 -4.915066532844666  1.398049690886424 0.4419377546899956 -5.387643705321969  1.183972204621215 0.9208338616597355 -5.413149504812257  0.7621482426349403 1.234356207118232 -5.461782499987256  0.2539805730796886 1.370727420898931 -5.519751404145364  -0.2689415860383004 1.319053689498898 -5.578906487138381  -0.7357170559581984 1.076180709179107 -5.631191713357971  -1.086003096318238 0.6812820615514149 -5.669884670156524  -1.65706961757681 -0.5275128747266272 -0.6240725009925172  -1.829082870387909 -0.8347372240299333 -1.153553189134448  -2.030635262011336 -1.097965926806997 -1.693320688638939  -2.148557703924963 -0.9683820133813712 -2.295450526931833  -2.119047321408695 -0.7521727279271558 -2.890676896601294  -1.972500555455803 -0.7106310836492745 -3.509380855831461  -1.885028119342598 -0.4902108162504233 -4.093718100793141  -1.832050776792238 -0.1313823297003599 -4.617858136599065  -1.636180550340053 0.1151199882480144 -5.165527944859976  -1.540434086810702 0.1014447694855235 -7.644826989049428e-17  -1.339902801239663 0.6191128040412099 2.218327606354497e-17  -0.9949589579071262 1.053322092476122 2.12059320661159e-17  -0.5243975458638882 1.346285776146202 7.754217898549941e-16  0.01399251627036286 1.481823287560149 3.252316763596149e-17  0.5696211504784076 1.47677978548424 -7.207855520904863e-17  1.105448032340458 1.331487337928338 1.951563910473908e-16  1.561367740818086 1.018090979386763 -2.179459114756194e-16  1.860006992193919 0.551530302300456 1.369433074745588e-16  -0.152869286718376 2.506583809965366 -5.568804938302105  -0.7781210310064858 2.335338381675429 -5.639249366957451  -1.340550096787874 2.011723800088065 -5.702178028336585  -1.803922993566052 1.555830170950866 -5.753534898075912  -2.144678763029901 1.000979069722826 -5.790734833138769  -2.346903237737564 0.3811866585909049 -5.812061421922149  -2.406990243842066 -0.2684488461825228 -5.817196438260218  -2.318433628103212 -0.9144163570965761 -5.805488779558074  -2.059391262210163 -1.511004864267824 -5.774580158166454  -1.615755841275718 -1.983465489741105 -5.72306417450185  -1.043145925381342 -2.287058241276404 -5.657361969815248  -0.6986882361605687 -2.420627649803484 -5.024556445072709  -0.8272574030199392 -2.685291244074475 -4.476216325063944  -0.8113210073272845 -3.118860027310894 -4.01596683617901  -0.7618552434953355 -3.481598098596065 -3.504026669625047  -0.7509882165597778 -3.609083979854663 -2.886473298216772  -0.7986167670519319 -3.732483084086931 -2.268445488219849  -0.8276969497603353 -3.810997815301134 -1.64593496945388  -0.7425506523451623 -3.557242155569485 -1.078322423839125  -0.7147449622328144 -3.21189056194362 -0.5511080601316157  -1.482234509376526 -2.778582553401298 -5.854479658363816e-16  -1.970737176894139 -2.437284655419533 2.764697292186607e-16  -2.362818572203899 -1.988727212877528 2.439101268600111e-16  -2.642390785384022 -1.462244173776716 5.051059276813266e-16  -2.812149102113852 -0.89052423419162 2.276851973687203e-16  -2.877946727920729 -0.2976446157883296 -1.219909928720168e-16  -2.842947107925845 0.2978601752284433 4.065446096494693e-17  -2.70313036896374 0.8776122116387211 -5.041496169361013e-16  -2.452324348076021 1.418519584933707 4.379274460317988e-16  -2.098265626135573 1.898294456130726 1.951060033519619e-16  -1.658391347368763 2.301023318502569 -1.789574489620802e-16  -1.154148079923361 2.619757341302747 -2.081203863085907e-15  -0.6042202207747882 2.851073703499478 -3.577841418755692e-16  -0.02416138323675775 2.990516581461941 4.065982498622179e-16  0.5710641261211448 3.028216945076794 -1.46882551317968e-16  0.6414151130412097 2.696325287154043 -4.983333021490838  0.771852374565919 2.778456367279237 -4.445188759107248  0.8805845204306011 2.73078881179073 -3.897720120696569  0.9481597620953167 2.69798349057175 -3.343104559074628  0.9815370707090804 2.778214865778854 -2.789250505759619  1.013475345489448 2.861817704396183 -2.235671116027784  1.055849759321274 2.898356228459238 -1.677594140621302  1.093646323460014 2.92793989028903 -1.118725590781912  1.124098871622056 2.957526991478201 -0.5594169689370629  0.2477015793419729 -2.415655802610486 -5.510682951113449  0.8844491790088972 -2.245867158009595 -5.438931443942415  1.464891069119211 -1.932330028996181 -5.373934600293736  1.955087092649627 -1.489613175355717 -5.319502697776375  2.318355026965356 -0.937054784961175 -5.279744576064058  2.524994411863564 -0.307899182343253 -5.257941630215678  2.574632820450045 0.3531084349228537 -5.254020561031156  2.465743861849647 1.006614152640354 -5.268052816559671  2.183897076015212 1.604484044160622 -5.301550147358176  1.722560240631265 2.07491696755195 -5.35506775502591  1.13806318635062 2.378906583716481 -5.422118662603529  1.742182153284979 2.73179858498085 5.854691697147836e-16  2.262480931380501 2.395264875892136 -2.601681534737615e-16  2.698000706832733 1.954727370266727 -3.903113804560263e-16  3.021530388777258 1.426473918441798 1.707421408502106e-16  3.223363606607101 0.8405687193648443 -2.844806418042028e-16  3.305434793487241 0.2261994274297442 -4.472186606099012e-16  3.269241566985055 -0.3926051469820059 3.171555149681837e-16  3.113478077610213 -0.9924495549400153 3.510830505762065e-16  2.840400132149515 -1.548806515270482 -1.707368614952523e-16  2.466120284856568 -2.042983582774378 9.732831365154574e-17  2.008125599488538 -2.460814027017948 -3.577575055983979e-16  1.482521285196868 -2.789563899556613 -4.886146623064541e-17  0.9057866143556688 -3.01678997208197 -2.439392613813594e-16  0.2964958724913082 -3.130681163554852 3.414395345104792e-16  -0.32338307292875 -3.126978161260848 2.926910878106614e-16  -1.29067345658392 -0.3506098753383553 -5.690421630247788  -1.068897680254163 -0.8451623229646739 -5.663999894259847  -0.6782440885714781 -1.219621806060448 -5.6187489875115  -0.168757542531344 -1.390394566692369 -5.560546895724229  0.3611301401510615 -1.294122251639114 -5.500717901478111  0.8191548613516448 -1.005201308695582 -5.449538098373106  1.16817203978903 -0.5892762115769014 -5.411042670828763  1.960898302630318 -0.551652302616722 -8.131516293641286e-17  1.751009740180289 -1.077278642631261 7.445724005953314e-16  1.394016468000002 -1.516729095803803 1.136104663605282e-15  0.9227767039454898 -1.830301465573364 3.434443593283319e-16  0.3780412068884804 -1.984007749105097 8.617772484356591e-16  -0.1885780664025548 -1.977994130030172 2.357202029695971e-16  -0.7327557451871473 -1.821291124380143 1.942410916395698e-17  -1.191068596016128 -1.491774666596192 2.975009434367945e-16  -1.480405544894888 -1.006855825633415 6.954512630084263e-16  -1.812414118534285 0.2561131097252937 -2.664867827914479  2.421751940242729 0.6298287624476981 -1.933377861698098  0.7556418177061754 1.42269463362527 -4.617654324361507  0.003134751711410342 1.574821943356493 -0.9318675177876981  1.015098001669947 1.51699057942374 -0.9441494884276413  0.6193243625380082 1.764115149411371 -1.862230514405671  -0.4757031201037318 1.549728101933577 -1.958273018773558  0.1126459993007786 1.698838152590054 -2.957602797129454  -0.3405660022430232 1.569615851499001 -4.678135257405353  1.818199099779932 0.7365610114574719 -3.763003518505052  -0.9541815370276669 1.23451227632913 -2.875526912859068  -1.269464226480212 1.016489154450913 -4.672047638709048  1.301562892980348 1.557566760682666 -2.802482532053872  -0.7813756340336595 1.414221906310649 -3.725761628685261  -1.58370798409762 0.5643609111372817 -3.581008460136619  -0.988817348255397 1.158392548936659 -1.014254585170146  -1.607700527190565 0.2800106654898483 -1.030081240453645  -1.388203055800784 0.7951310659851955 -1.943712885648593  0.8261955720421881 1.570157055202129 -3.620947225245673  1.681455131778566 1.410849015379531 -1.876189895849114  1.878739160554727 0.943024132521903 -0.9866418074548234  2.103426639579445 1.000735947836943 -2.593434794762663  1.62623803052506 0.6468498306152269 -4.727220189271843  -1.882943490361709 -0.1546739965127431 -1.761716647663214  0.05868355051519467 1.656538949473053 -3.863342338366238  2.465845305360337 0.2632819454094029 -2.663569745038379  1.994842599423799 0.5019775153043848 -0.4779055074204815  2.1671824130763 0.4980244878585698 -1.027636182799239  1.710213566460811 0.9718796190568162 -0.4957578884333736  1.845584590132108 0.2253887364997403 -4.583879812097906  1.579035044615276 0.2924902970866011 -5.101748935835201  1.409777182251665 0.7868327264427526 -5.07202467441607  -1.039178737375989 1.089168173550246 -5.170746090958521  -1.377687418630729 0.6683636420802941 -5.233117919580046  -1.641402128985454 0.4875654733502939 -4.648722230221863  -1.765467255797776 -0.2695484060062747 -1.079683539430899  -1.617858736076732 -0.08318463488274264 -0.5123563299218489  -1.474019211051276 0.4496529111656123 -0.5150171376928306  2.417677350191343 0.3274903893149403 -1.506992657970159 
[...]
<PointData  Tensors="stress"> 
<DataArray  type="Float64"  Name="stress"  NumberOfComponents="9" format="ascii">8.8229340318129967e-01 -1.9907289974697287e-01 -5.6631745303155530e+00 -1.9907289974697287e-01 2.0276158755869469e+00 -7.4532854480550959e-01 -5.6631745303155530e+00 -7.4532854480550959e-01 6.1329644754080315e+00  -1.5815106574990889e+00 9.7695408129044448e-01 2.9363107838076314e+00 9.7695408129044436e-01 9.5686647402771285e+00 -1.6589681043111464e+00 2.9363107838076319e+00 -1.6589681043111464e+00 2.5550492343108231e+00  -7.0910757421673820e-01 1.5181739075391925e+00 -3.5120553034993645e+00 1.5181739075391922e+00 9.2195813896532464e+00 1.8636392091582774e+00 -3.5120553034993649e+00 1.8636392091582774e+00 2.3058603182026487e+00  4.7115550840137777e-01 -7.4335725017217735e-01 5.2794112735148344e+00 -7.4335725017217735e-01 1.8618014613003233e+00 -6.1004508698379323e-01 5.2794112735148344e+00 -6.1004508698379323e-01 6.6468600799037834e+00  2.1920096601492665e+00 -2.0459925359627140e-01 1.1535273441315701e+00 -2.0459925359627143e-01 -1.5310951930439711e+00 1.1198349830496572e+00 1.1535273441315703e+00 1.1198349830496572e+00 8.7479741781293363e-01  3.8974106772756065e+00 -1.4121893239587230e-01 -1.0555479687701725e+00 -1.4121893239587230e-01 -2.4414399387168473e+00 -7.5792251772884123e-01 -1.0555479687701725e+00 -7.5792251772884123e-01 1.1867514585769972e+00  5.9308010832190727e-01 2.6366021286712116e-01 -9.9145052209174345e-01 2.6366021286712105e-01 2.0657578671765303e-01 3.5512811382280907e+00 -9.9145052209174334e-01 3.5512811382280907e+00 2.0743750876439773e+00  3.0942464438842976e-01 5.8205440678373865e-01 1.1656953855932630e+00 5.8205440678373865e-01 1.1153472150586703e+00 -1.6264244411999447e+00 1.1656953855932630e+00 -1.6264244411999447e+00 -5.2023580629784461e-01  -2.0668332031864081e+00 -8.6384301371667693e-01 -3.1700853979152877e+00 -8.6384301371667693e-01 5.4268881389133599e+00 -1.6395736205266174e+00 -3.1700853979152877e+00 -1.6395736205266174e+00 5.0716989594628457e+00  -2.4756188898411251e+00 -1.1648606633883922e+00 -2.5345064948059890e+00 -1.1648606633883920e+00 7.1941763068392470e+00 -1.3014386104944442e+00 -2.5345064948059890e+00 -1.3014386104944442e+00 4.7416052716630723e+00  -2.9730636451644061e+00 -2.0638674169092475e-01 -2.1921811187022446e+00 -2.0638674169092472e-01 7.8462511799597099e+00 -7.1547271956049241e-01 -2.1921811187022446e+00 -7.1547271956049230e-01 5.3075733285422517e+00  -3.3706543293790450e+00 5.4345976263305207e-01 3.6705586437926305e-02 5.4345976263305218e-01 7.6905482130346376e+00 -1.1257992070441316e+00 3.6705586437926298e-02 -1.1257992070441316e+00 6.2579001253298525e+00  -2.5126635998946010e+00 -8.6588955467653758e-02 2.5561217389454969e+00 -8.6588955467653814e-02 8.8928735357362125e+00 -1.4590067904031392e+00 2.5561217389454969e+00 -1.4590067904031392e+00 4.5167702930644129e+00  -2.3660494613568166e+00 -9.2582690930006339e-01 2.2657937824908023e+00 -9.2582690930006339e-01 9.8582119680204574e+00 -5.2238234763333102e-01 2.2657937824908023e+00 -5.2238234763333102e-01 3.2225345582225757e+00  -2.6099368868502220e+00 -3.1632646345430315e-01 1.9873265469799131e+00 -3.1632646345430304e-01 1.0109678405724972e+01 -3.2453292797799360e-01 1.9873265469799131e+00 -3.2453292797799360e-01 3.3614968176409588e+00  -2.2568867126820908e+00 1.5654337351114944e-01 2.6078161032675191e+00 1.5654337351114944e-01 9.5846352309686154e+00 -8.6051742113088847e-01 2.6078161032675187e+00 -8.6051742113088836e-01 3.2297803377442258e+00  -1.2932928614941737e+00 7.0568940295576910e-01 3.3882832404629815e+00 7.0568940295576910e-01 9.4884992958066405e+00 -1.1514170058120052e+00 3.3882832404629815e+00 -1.1514170058120043e+00 2.6453186933973503e+00  -9.6179509058017543e-01 -2.6965991244476548e+00 3.6089229603574431e+00 -2.6965991244476548e+00 8.1137731788238465e+00 -3.0823195012744942e-01 3.6089229603574431e+00 -3.0823195012744953e-01 3.2538403858417926e+00  2.3906902715659633e+00 -5.4594657254942689e+00 2.8734940458046245e+00 -5.4594657254942689e+00 4.4306419372747223e+00 1.1442103428977253e+00 2.8734940458046245e+00 1.1442103428977253e+00 3.6484825959743405e+00  6.3410916141491764e+00 -4.3152238332565682e+00 2.1904017810166159e+00 -4.3152238332565682e+00 -1.4486390730616905e-01 2.2933023923190228e+00 2.1904017810166159e+00 2.2933023923190232e+00 4.1028574468584216e+00  8.0547205133690749e+00 -1.0149435130407984e+00 1.3542542008887821e+00 -1.0149435130407984e+00 -1.8369007407025926e+00 3.3351728052579745e+00 1.3542542008887821e+00 3.3351728052579741e+00 4.2197245677367921e+00  7.5031652713185499e+00 2.3997826217763052e+00 -1.5762292611107240e-01 2.3997826217763052e+00 -8.2364526399946580e-01 4.0055968740746941e+00 -1.5762292611107234e-01 4.0055968740746941e+00 3.9887224651639097e+00  4.6528629336279250e+00 4.6130164616054987e+00 -1.4561550510512429e+00 4.6130164616054987e+00 2.3325387760988701e+00 3.7808614266090412e+00 -1.4561550510512429e+00 3.7808614266090412e+00 3.4202908410421187e+00  1.3909740565205146e+00 4.2306625483930960e+00 -2.6224932254607096e+00 4.2306625483930977e+00 6.1867165937672937e+00 3.1320677037809097e+00 -2.6224932254607096e+00 3.1320677037809097e+00 2.9579678083897636e+00  -2.5240951445182662e+00 -3.3979735530265065e-01 2.9253694865101538e+00 -3.3979735530265065e-01 4.7730877951207153e+00 2.9242007714515283e-01 2.9253694865101538e+00 2.9242007714515283e-01 5.3253153018991659e+00  -2.4737669715407216e+00 -7.7336491852559464e-01 2.6140283135214446e+00 -7.7336491852559464e-01 6.7680311209254294e+00 1.9650303079394671e-01 2.6140283135214446e+00 1.9650303079394665e-01 4.0899379043425812e+00  -2.8118522412246922e+00 -7.8501856683430948e-01 2.2909008375354722e+00 -7.8501856683430948e-01 7.2305066389421562e+00 6.1627312984073224e-01 2.2909008375354722e+00 6.1627312984073224e-01 5.1404136332331181e+00  -3.4127479101920200e+00 -3.4202248623282866e-01 4.6678748996142388e-01 -3.4202248623282866e-01 7.9972839039257790e+00 1.1177857433537441e+00 4.6678748996142361e-01 1.1177857433537444e+00 5.7654446916245972e+00  -3.2487820006226857e+00 8.4219137666503768e-02 -9.6468047349532515e-01 8.4219137666503699e-02 8.7158830270704915e+00 1.8428258996342699e+00 -9.6468047349532493e-01 1.8428258996342699e+00 5.2491884686318500e+00  -2.8893179407131937e+00 -4.5261773385764670e-01 -1.3325060767388892e+00 -4.5261773385764698e-01 9.4321843661150595e+00 2.1646786190591576e+00 -1.3325060767388892e+00 2.1646786190591576e+00 4.0498290149852139e+00  -3.0400706025645126e+00 -2.7298408533364754e-01 -9.9220856441285443e-01 -2.7298408533364749e-01 9.4009552409954740e+00 2.4302500364182085e+00 -9.9220856441285421e-01 2.4302500364182085e+00 4.3218430031483805e+00  -3.0410355099476636e+00 9.0155083216065113e-01 -1.3228579567120478e+00 9.0155083216065091e-01 9.0346728865088544e+00 2.1250534599242505e+00 -1.3228579567120478e+00 2.1250534599242505e+00 4.9662741661241858e+00  -1.9607515903521948e+00 1.2736225811615174e+00 -2.8171749588641566e+00 1.2736225811615181e+00 8.8928342579546786e+00 2.2013528519487795e+00 -2.8171749588641570e+00 2.2013528519487804e+00 4.1539931889765453e+00  -2.7277500108421393e-02 -2.3637147231773535e-02 5.0939215912703970e+00 -2.3637147231773535e-02 2.1131120049809615e+00 -1.2955372242717824e+00 5.0939215912703970e+00 -1.2955372242717824e+00 7.0605089689064204e+00  1.9801098418818508e-01 6.3634731662658384e-01 4.3295902910729911e+00 6.3634731662658384e-01 1.7762111686513995e+00 -2.7644553671094618e+00 4.3295902910729911e+00 -2.7644553671094618e+00 7.0977359751753601e+00  6.6137935741065934e-01 1.1924182530032283e+00 3.6142356320116273e+00 1.1924182530032283e+00 1.2314275413656541e+00 -3.6364280186608338e+00 3.6142356320116260e+00 -3.6364280186608338e+00 7.3812109752258177e+00  1.5363324429727745e+00 9.3856701307605306e-01 2.1518273872531855e+00 9.3856701307605284e-01 5.2076215886853772e-01 -4.5214929408927560e+00 2.1518273872531855e+00 -4.5214929408927560e+00 7.4831042847978333e+00  1.9730650272336574e+00 6.4324771362854682e-01 1.3153474459496775e+00 6.4324771362854682e-01 9.5598400640856007e-02 -4.9593549356352566e+00 1.3153474459496775e+00 -4.9593549356352566e+00 7.7570245919100120e+00  2.1339242316204441e+00 7.6323446065487785e-02 -5.2871131284277062e-01 7.6323446065487785e-02 6.1013481705291500e-02 -5.1705105078447078e+00 -5.2871131284277062e-01 -5.1705105078447078e+00 8.0274510527445049e+00  2.0985272164283049e+00 -3.7869164516825027e-01 -1.7361755286769405e+00 -3.7869164516825027e-01 2.0566481370825715e-01 -5.0821832164927754e+00 -1.7361755286769405e+00 -5.0821832164927754e+00 7.0214968400361535e+00  1.6788564104905768e+00 -1.0488126910057589e+00 -3.9876048913095370e+00 -1.0488126910057589e+00 1.0205026558942614e+00 -3.6856692724530089e+00 -3.9876048913095370e+00 -3.6856692724530089e+00 7.6912488328327901e+00  6.8622991583407522e-01 -8.6990668260780024e-01 -5.1207364167112370e+00 -8.6990668260780024e-01 1.6487749621561356e+00 -2.1080779217664039e+00 -5.1207364167112370e+00 -2.1080779217664039e+00 8.3444614776986938e+00  1.9378902568903984e+00 7.0931035123986219e-01 6.2874007083849037e-01 7.0931035123986219e-01 -1.3690623617686548e+00 1.5192429958079239e+00 6.2874007083849037e-01 1.5192429958079239e+00 9.8109273169214806e-01  1.7250554233511397e+00 1.4941183575230623e+00 3.1334235606579180e-01 1.4941183575230623e+00 -9.2754334189362198e-01 1.6267877945444740e+00 3.1334235606579180e-01 1.6267877945444742e+00 9.1316506800119723e-01  5.8649924236479145e-01 1.7269533560882959e+00 -2.5999147177519366e-01 1.7269533560882959e+00 -1.0531670518027120e-01 1.7073245874929723e+00 -2.5999147177519366e-01 1.7073245874929721e+00 1.0448333993083492e+00  -9.5917998249581637e-02 1.8917868889320819e+00 -9.2492830582682384e-01 1.8917868889320819e+00 1.3898808143388510e+00 1.5326567826459017e+00 -9.2492830582682384e-01 1.5326567826459017e+00 5.3922908251517865e-01  -8.7222003262427650e-01 1.2248074889925733e+00 -1.2947341392457115e+00 1.2248074889925733e+00 2.2887753830159303e+00 1.3850180990591701e+00 -1.2947341392457115e+00 1.3850180990591701e+00 4.6061745333595716e-01  -1.3737054791941230e+00 4.1266057713894094e-01 -1.5371849497049130e+00 4.1266057713894111e-01 2.4702302350910550e+00 9.6368490372873417e-01 -1.5371849497049130e+00 9.6368490372873394e-01 7.5451689010471090e-01  -1.1577957382848136e+00 -4.6666097408750851e-01 -1.9143106415753190e+00 -4.6666097408750834e-01 2.5335335968023740e+00 6.1314356421270999e-01 -1.9143106415753190e+00 6.1314356421271010e-01 7.2148060357284816e-01  -5.6517936468204855e-01 -1.5654786132241703e+00 -1.6481972436455552e+00 -1.5654786132241703e+00 1.9073224935267397e+00 2.6310483693759660e-02 -1.6481972436455548e+00 2.6310483693759650e-02 3.1400115066777717e-01  5.0725870514730231e-01 -2.0672500538971930e+00 -1.7511294333350267e+00 -2.0672500538971930e+00 4.5380917713975982e-01 1.2930674673872858e-01 -1.7511294333350262e+00 1.2930674673872861e-01 6.8859845239663808e-01  1.2174303812482625e+00 -9.0672893020911682e-01 -1.6048918358234185e+00 -9.0672893020911660e-01 -1.3150956771579556e+00 -5.4299064810743547e-01 -1.6048918358234183e+00 -5.4299064810743547e-01 1.0896990432358893e+00  2.9502217532004562e+00 -1.3075869660720834e+00 -1.2350443195188148e+00 -1.3075869660720834e+00 -1.7888151311196145e+00 -8.7999553737839098e-01 -1.2350443195188145e+00 -8.7999553737839131e-01 9.8300663092359541e-01  5.1909779924117796e+00 -8.4999644884333692e-01 -1.4646465377629827e+00 -8.4999644884333680e-01 -2.3327403234113118e+00 -1.9995189895411036e+00 -1.4646465377629827e+00 -1.9995189895411036e+00 2.6748482594722769e+00  5.1682328123288599e+00 -6.1623912312184848e-01 -1.3039961844653736e+00 -6.1623912312184825e-01 -9.3251525915386047e-01 -3.1210817548880505e+00 -1.3039961844653731e+00 -3.1210817548880505e+00 1.6077691714147568e+00  4.1127723614993936e+00 -1.5924011769201649e-01 -7.2468940232639734e-01 -1.5924011769201649e-01 -8.6136365430264239e-01 -2.6558460529157784e+00 -7.2468940232639767e-01 -2.6558460529157784e+00 3.9430716850425690e-01  3.4052029757320894e+00 -1.0969473524730784e-02 -5.7499416973839756e-01 -1.0969473524730784e-02 -1.8074526889089775e+00 -1.7987175553583530e+00 -5.7499416973839734e-01 -1.7987175553583530e+00 9.4289963467941340e-01  3.0451947621011586e+00 -6.2124429680093163e-01 -9.7849118175051697e-01 -6.2124429680093163e-01 -2.4296008588332065e+00 -1.1378908825154344e+00 -9.7849118175051697e-01 -1.1378908825154344e+00 2.4382403657697935e+00  2.3766889283762378e+00 -6.6594511823786329e-01 -7.8481084908668086e-01 -6.6594511823786329e-01 -2.4822742710422547e+00 -5.5243741940024360e-01 -7.8481084908668086e-01 -5.5243741940024360e-01 2.5413561398488458e+00  1.5210243028345312e+00 -9.8248982862778633e-01 -1.3929732753828977e-01 -9.8248982862778655e-01 -1.8573163200097689e+00 7.8892598656439084e-01 -1.3929732753828977e-01 7.8892598656439072e-01 1.5774420621835770e+00  1.5243395889500753e+00 -1.4859432703626332e+00 -7.0975946483697100e-03 -1.4859432703626332e+00 -1.1492575961105274e+00 2.3334182834414667e+00 -7.0975946483697108e-03 2.3334182834414667e+00 2.3437591358358305e+00  1.7446935974335249e+00 -1.2214347385650333e+00 -2.4867467553759953e-01 -1.2214347385650333e+00 -1.1980861770128455e+00 3.0586730783611240e+00 -2.4867467553759953e-01 3.0586730783611240e+00 3.5349548785986373e+00  6.0986522163435353e-01 1.9832993716133476e-01 -3.3154094951315821e-01 1.9832993716133479e-01 -3.2572739917241543e-02 3.3617557885283715e+00 -3.3154094951315821e-01 3.3617557885283715e+00 1.5741891872560048e+00  5.9913420294646902e-01 6.5334274437702830e-02 1.5188004973677857e-01 6.5334274437702816e-02 -1.7722459558169110e-01 3.0873825748884838e+00 1.5188004973677857e-01 3.0873825748884838e+00 1.1936616952419530e+00  7.0659936825808944e-01 -1.7581933786175352e-01 7.9005865067875891e-01 -1.7581933786175352e-01 -2.5812441577604411e-01 2.9645950252764743e+00 7.9005865067875891e-01 2.9645950252764743e+00 1.1959247979061089e+00  8.1655272177019833e-01 -4.2968896294931369e-01 1.1915918482459962e+00 -4.2968896294931369e-01 -9.1032006593306458e-02 2.6495144441820218e+00 1.1915918482459962e+00 2.6495144441820218e+00 8.8537243385261433e-01  6.4484577729825321e-01 -3.6047381582246091e-01 1.6778474417364386e+00 -3.6047381582246091e-01 -8.0003043599178397e-02 2.3266377926446444e+00 1.6778474417364386e+00 2.3266377926446444e+00 7.7469938373676395e-01  1.0666549973877490e+00 -2.4665037126872494e-01 1.4991009523721710e+00 -2.4665037126872494e-01 1.4311845817105831e-01 1.7426537847864678e+00 1.4991009523721708e+00 1.7426537847864678e+00 -5.2873302821669410e-01  1.1567931818306656e+00 -3.9002023121388502e-01 1.7828260039738710e+00 -3.9002023121388502e-01 2.6199685718734433e-01 1.0223487873509087e+00 1.7828260039738710e+00 1.0223487873509087e+00 -7.2963418141898007e-01  6.9012485656254452e-01 -7.5884271144095217e-01 2.3693288987664163e+00 -7.5884271144095217e-01 6.8522572804392645e-01 7.8542743852584085e-01 2.3693288987664163e+00 7.8542743852584085e-01 1.2572863206078241e-02  7.6289469823342249e-01 -8.1355689521795671e-01 2.1518325465585941e+00 -8.1355689521795671e-01 1.0573650802727523e+00 9.1583304134018037e-02 2.1518325465585941e+00 9.1583304134018037e-02 -7.5944305894437780e-01  4.8456913803821977e-01 -8.3885313804882855e-01 2.1757920687886090e+00 -8.3885313804882855e-01 1.4315527019079073e+00 -2.4999837716218420e-01 2.1757920687886090e+00 -2.4999837716218420e-01 -8.0848440422745904e-01  -7.6928387092618206e-02 -5.0144489084697341e-01 2.0050389599209524e+00 -5.0144489084697341e-01 1.6528270188481202e+00 -8.4209460165120176e-01 2.0050389599209524e+00 -8.4209460165120176e-01 -4.5958525301811748e-01  -2.2529887246814473e-01 1.1039343486255941e-01 1.9618106727870133e+00 1.1039343486255941e-01 1.4427603318028810e+00 -1.1793975571359863e+00 1.9618106727870133e+00 -1.1793975571359863e+00 1.1022310567966356e-01  2.8418908005298521e-01 1.7287337060233335e-01 1.2710634248935788e+00 1.7287337060233332e-01 1.5287942580325646e+00 -1.3219554604486738e+00 1.2710634248935788e+00 -1.3219554604486738e+00 -9.6645292754606626e-01  3.7673937877090913e-01 -6.7566069606742507e-01 -1.9019240519597516e-01 -6.7566069606742507e-01 1.8223295283987124e+00 -1.7543279097240638e+00 -1.9019240519597516e-01 -1.7543279097240638e+00 -1.5495734028707202e+00  -1.5595784974135965e-01 5.4014185569634721e-01 9.0927414743464963e-01 5.4014185569634721e-01 1.1807268958361032e+00 -1.6709697689773841e+00 9.0927414743464963e-01 -1.6709697689773839e+00 -4.9186049121209344e-02  2.0509553597439085e+00 -8.4430461185241323e-01 8.3262247303111769e-01 -8.4430461185241323e-01 -1.7817346515791077e+00 7.6764105656858994e-01 8.3262247303111747e-01 7.6764105656858972e-01 1.3348512007420121e+00  2.0117876801765107e+00 -8.8585483904722495e-01 1.0549003832131254e+00 -8.8585483904722517e-01 -1.9950504152661062e+00 8.6718380782166857e-02 1.0549003832131254e+00 8.6718380782166593e-02 1.5241036378209081e+00  2.6531771303283640e+00 -1.3954131604859676e+00 1.1052306241431549e+00 -1.3954131604859676e+00 -2.2659360500559704e+00 -9.3374171899016284e-02 1.1052306241431549e+00 -9.3374171899016228e-02 2.2792237152753145e+00  3.5176667585614183e+00 -1.4144616966608252e+00 1.2118009170677417e+00 -1.4144616966608252e+00 -2.5076337063179555e+00 3.3553669145477899e-01 1.2118009170677417e+00 3.3553669145477899e-01 2.8584357559367013e+00  3.2316545883030345e+00 -1.1991699383333203e+00 1.1751848547221944e+00 -1.1991699383333205e+00 -2.4777357593457809e+00 6.0430084190760980e-01 1.1751848547221944e+00 6.0430084190760980e-01 2.8353565319409211e+00  2.9157057376341506e+00 -9.3087712724076277e-01 9.1914048813594129e-01 -9.3087712724076277e-01 -2.5818555177765994e+00 4.7585209169339460e-01 9.1914048813594129e-01 4.7585209169339465e-01 2.8405032131089181e+00  2.2807714950959932e+00 -7.6854951977102637e-01 7.2780805526814984e-01 -7.6854951977102637e-01 -2.5339876791843134e+00 2.2093157647108294e-01 7.2780805526814984e-01 2.2093157647108294e-01 2.9674919877668295e+00  1.6049173022744381e+00 -7.2140392608814830e-01 1.3025319658426702e+00 -7.2140392608814830e-01 -2.2990686389701933e+00 -1.8201209891933903e-01 1.3025319658426702e+00 -1.8201209891933903e-01 2.8398692564659216e+00  9.6500418559268553e-01 -4.3336192035438825e-01 1.4243368613654577e+00 -4.3336192035438825e-01 -9.8964588178966650e-01 -1.3431364909157831e-01 1.4243368613654575e+00 -1.3431364909157831e-01 3.0279601151175245e-01  3.6057058992555766e+00 1.0498482476427788e+00 -7.0525461442385529e-01 1.0498482476427788e+00 -2.1584583117679244e+00 -1.4483842976874044e+00 -7.0525461442385551e-01 -1.4483842976874044e+00 1.3494804610602409e+00  3.1792737349856233e+00 2.6588325778016872e+00 -2.5297422904129252e-01 2.6588325778016881e+00 -1.2941344389496865e+00 -1.5750901768319179e+00 -2.5297422904129246e-01 -1.5750901768319179e+00 1.4890692893851678e+00  1.3990980848940928e+00 3.1428538470065686e+00 2.7458234445272972e-01 3.1428538470065677e+00 -9.7468050758056660e-02 -1.5186158171276551e+00 2.7458234445272972e-01 -1.5186158171276551e+00 1.8427103391679642e+00  -4.1414059654204527e-01 3.0794324312198627e+00 6.2070382201101026e-01 3.0794324312198627e+00 1.7661413114957591e+00 -1.4442962623188986e+00 6.2070382201101026e-01 -1.4442962623188986e+00 1.8564780020222444e+00  -1.6479665327340984e+00 1.9002125246576760e+00 9.8479828576110773e-01 1.9002125246576760e+00 2.3158717516330758e+00 -1.3783257940668205e+00 9.8479828576110773e-01 -1.3783257940668205e+00 2.0485284655835518e+00  -1.9396798115025571e+00 7.0116378868506501e-01 1.4183736379513590e+00 7.0116378868506501e-01 2.8872495789195587e+00 -1.0116640196663373e+00 1.4183736379513590e+00 -1.0116640196663373e+00 1.5534918460770801e+00  -1.5664493118057605e+00 -7.2204405256472393e-01 1.7062106937787778e+00 -7.2204405256472393e-01 2.3484180257081735e+00 -5.9347847321184177e-01 1.7062106937787778e+00 -5.9347847321184166e-01 1.1164396521297886e+00  -1.5342508624138422e+00 -1.1003911842554428e+00 1.4276533863522607e+00 -1.1003911842554428e+00 1.6945816213032634e+00 -4.9164892178106517e-01 1.4276533863522607e+00 -4.916