<?xml version="1.0"?>
<VTKFile type="UnstructuredGrid"  version="0.1"  >
<UnstructuredGrid>
<Piece  NumberOfPoints="1268" NumberOfCells="4847">
<Points>
<DataArray  type="Float64"  NumberOfComponents="3"  format="ascii">1.994716987487452 0.01317707561264319 -1.202466945460223e-11  1.374072606111497 -0.08614134488653273 -5.388997575085332  -1.285941478930618 0.1916557790035214 -5.691288663606836  -1.59032616235459 -0.4515196446136259 1.626303258728257e-17  0.4950030257755884 2.521650519233041 -5.495391852657774  -0.4107718940653654 -2.429115409112172 -5.58531208084276  -0.9314707163843408 -3.006923447963563 4.87890977618477e-17  1.161824811771535 2.948440156756841 -3.391384395534658e-14  2.146749234505421 0.002696741478414759 -0.5615078450779066  2.330988047973839 -0.000873250973709995 -1.113141311680313  2.540713632977715 -0.1384292375506191 -1.637427654548237  2.645241452520652 -0.2872312815961211 -2.18637082393926  2.504842461151312 -0.2752146673621067 -2.746850782899552  2.287876352721185 -0.2088259978706829 -3.283011632728322  2.137771360922677 -0.2093380261300688 -3.844996501809416  1.970142554575494 -0.2193701374385486 -4.401638277082749  1.701580801829277 -0.1696632515169769 -4.915066532844666  1.398049690886424 0.4419377546899956 -5.387643705321969  1.183972204621215 0.9208338616597355 -5.413149504812257  0.7621482426349403 1.234356207118232 -5.461782499987256  0.2539805730796886 1.370727420898931 -5.519751404145364  -0.2689415860383004 1.319053689498898 -5.578906487138381  -0.7357170559581984 1.076180709179107 -5.631191713357971  -1.086003096318238 0.6812820615514149 -5.669884670156524  -1.65706961757681 -0.5275128747266272 -0.6240725009925172  -1.829082870387909 -0.8347372240299333 -1.153553189134448  -2.030635262011336 -1.097965926806997 -1.693320688638939  -2.148557703924963 -0.9683820133813712 -2.295450526931833  -2.119047321408695 -0.7521727279271558 -2.890676896601294  -1.972500555455803 -0.7106310836492745 -3.509380855831461  -1.885028119342598 -0.4902108162504233 -4.093718100793141  -1.832050776792238 -0.1313823297003599 -4.617858136599065  -1.636180550340053 0.1151199882480144 -5.165527944859976  -1.540434086810702 0.1014447694855235 -7.644826989049428e-17  -1.339902801239663 0.6191128040412099 2.218327606354497e-17  -0.9949589579071262 1.053322092476122 2.12059320661159e-17  -0.5243975458638882 1.346285776146202 7.754217898549941e-16  0.01399251627036286 1.481823287560149 3.252316763596149e-17  0.5696211504784076 1.47677978548424 -7.207855520904863e-17  1.105448032340458 1.331487337928338 1.951563910473908e-16  1.561367740818086 1.018090979386763 -2.179459114756194e-16  1.860006992193919 0.551530302300456 1.369433074745588e-16  -0.152869286718376 2.506583809965366 -5.568804938302105  -0.7781210310064858 2.335338381675429 -5.639249366957451  -1.340550096787874 2.011723800088065 -5.702178028336585  -1.803922993566052 1.555830170950866 -5.753534898075912  -2.144678763029901 1.000979069722826 -5.790734833138769  -2.346903237737564 0.3811866585909049 -5.812061421922149  -2.406990243842066 -0.2684488461825228 -5.817196438260218  -2.318433628103212 -0.9144163570965761 -5.805488779558074  -2.059391262210163 -1.511004864267824 -5.774580158166454  -1.615755841275718 -1.983465489741105 -5.72306417450185  -1.043145925381342 -2.287058241276404 -5.657361969815248  -0.6986882361605687 -2.420627649803484 -5.024556445072709  -0.8272574030199392 -2.685291244074475 -4.476216325063944  -0.8113210073272845 -3.118860027310894 -4.01596683617901  -0.7618552434953355 -3.481598098596065 -3.504026669625047  -0.7509882165597778 -3.609083979854663 -2.886473298216772  -0.7986167670519319 -3.732483084086931 -2.268445488219849  -0.8276969497603353 -3.810997815301134 -1.64593496945388  -0.7425506523451623 -3.557242155569485 -1.078322423839125  -0.7147449622328144 -3.21189056194362 -0.5511080601316157  -1.482234509376526 -2.778582553401298 -5.854479658363816e-16  -1.970737176894139 -2.437284655419533 2.764697292186607e-16  -2.362818572203899 -1.988727212877528 2.439101268600111e-16  -2.642390785384022 -1.462244173776716 5.051059276813266e-16  -2.812149102113852 -0.89052423419162 2.276851973687203e-16  -2.877946727920729 -0.2976446157883296 -1.219909928720168e-16  -2.842947107925845 0.2978601752284433 4.065446096494693e-17  -2.70313036896374 0.8776122116387211 -5.041496169361013e-16  -2.452324348076021 1.418519584933707 4.379274460317988e-16  -2.098265626135573 1.898294456130726 1.951060033519619e-16  -1.658391347368763 2.301023318502569 -1.789574489620802e-16  -1.154148079923361 2.619757341302747 -2.081203863085907e-15  -0.6042202207747882 2.851073703499478 -3.577841418755692e-16  -0.02416138323675775 2.990516581461941 4.065982498622179e-16  0.5710641261211448 3.028216945076794 -1.46882551317968e-16  0.6414151130412097 2.696325287154043 -4.983333021490838  0.771852374565919 2.778456367279237 -4.445188759107248  0.8805845204306011 2.73078881179073 -3.897720120696569  0.9481597620953167 2.69798349057175 -3.343104559074628  0.9815370707090804 2.778214865778854 -2.789250505759619  1.013475345489448 2.861817704396183 -2.235671116027784  1.055849759321274 2.898356228459238 -1.677594140621302  1.093646323460014 2.92793989028903 -1.118725590781912  1.124098871622056 2.957526991478201 -0.5594169689370629  0.2477015793419729 -2.415655802610486 -5.510682951113449  0.8844491790088972 -2.245867158009595 -5.438931443942415  1.464891069119211 -1.932330028996181 -5.373934600293736  1.955087092649627 -1.489613175355717 -5.319502697776375  2.318355026965356 -0.937054784961175 -5.279744576064058  2.524994411863564 -0.307899182343253 -5.257941630215678  2.574632820450045 0.3531084349228537 -5.254020561031156  2.465743861849647 1.006614152640354 -5.268052816559671  2.183897076015212 1.604484044160622 -5.301550147358176  1.722560240631265 2.07491696755195 -5.35506775502591  1.13806318635062 2.378906583716481 -5.422118662603529  1.742182153284979 2.73179858498085 5.854691697147836e-16  2.262480931380501 2.395264875892136 -2.601681534737615e-16  2.698000706832733 1.954727370266727 -3.903113804560263e-16  3.021530388777258 1.426473918441798 1.707421408502106e-16  3.223363606607101 0.8405687193648443 -2.844806418042028e-16  3.305434793487241 0.2261994274297442 -4.472186606099012e-16  3.269241566985055 -0.3926051469820059 3.171555149681837e-16  3.113478077610213 -0.9924495549400153 3.510830505762065e-16  2.840400132149515 -1.548806515270482 -1.707368614952523e-16  2.466120284856568 -2.042983582774378 9.732831365154574e-17  2.008125599488538 -2.460814027017948 -3.577575055983979e-16  1.482521285196868 -2.789563899556613 -4.886146623064541e-17  0.9057866143556688 -3.01678997208197 -2.439392613813594e-16  0.2964958724913082 -3.130681163554852 3.414395345104792e-16  -0.32338307292875 -3.126978161260848 2.926910878106614e-16  -1.29067345658392 -0.3506098753383553 -5.690421630247788  -1.068897680254163 -0.8451623229646739 -5.663999894259847  -0.6782440885714781 -1.219621806060448 -5.6187489875115  -0.168757542531344 -1.390394566692369 -5.560546895724229  0.3611301401510615 -1.294122251639114 -5.500717901478111  0.8191548613516448 -1.005201308695582 -5.449538098373106  1.16817203978903 -0.5892762115769014 -5.411042670828763  1.960898302630318 -0.551652302616722 -8.131516293641286e-17  1.751009740180289 -1.077278642631261 7.445724005953314e-16  1.394016468000002 -1.516729095803803 1.136104663605282e-15  0.9227767039454898 -1.830301465573364 3.434443593283319e-16  0.3780412068884804 -1.984007749105097 8.617772484356591e-16  -0.1885780664025548 -1.977994130030172 2.357202029695971e-16  -0.7327557451871473 -1.821291124380143 1.942410916395698e-17  -1.191068596016128 -1.491774666596192 2.975009434367945e-16  -1.480405544894888 -1.006855825633415 6.954512630084263e-16  -1.812414118534285 0.2561131097252937 -2.664867827914479  2.421751940242729 0.6298287624476981 -1.933377861698098  0.7556418177061754 1.42269463362527 -4.617654324361507  0.003134751711410342 1.574821943356493 -0.9318675177876981  1.015098001669947 1.51699057942374 -0.9441494884276413  0.6193243625380082 1.764115149411371 -1.862230514405671  -0.4757031201037318 1.549728101933577 -1.958273018773558  0.1126459993007786 1.698838152590054 -2.957602797129454  -0.3405660022430232 1.569615851499001 -4.678135257405353  1.818199099779932 0.7365610114574719 -3.763003518505052  -0.9541815370276669 1.23451227632913 -2.875526912859068  -1.269464226480212 1.016489154450913 -4.672047638709048  1.301562892980348 1.557566760682666 -2.802482532053872  -0.7813756340336595 1.414221906310649 -3.725761628685261  -1.58370798409762 0.5643609111372817 -3.581008460136619  -0.988817348255397 1.158392548936659 -1.014254585170146  -1.607700527190565 0.2800106654898483 -1.030081240453645  -1.388203055800784 0.7951310659851955 -1.943712885648593  0.8261955720421881 1.570157055202129 -3.620947225245673  1.681455131778566 1.410849015379531 -1.876189895849114  1.878739160554727 0.943024132521903 -0.9866418074548234  2.103426639579445 1.000735947836943 -2.593434794762663  1.62623803052506 0.6468498306152269 -4.727220189271843  -1.882943490361709 -0.1546739965127431 -1.761716647663214  0.05868355051519467 1.656538949473053 -3.863342338366238  2.465845305360337 0.2632819454094029 -2.663569745038379  1.994842599423799 0.5019775153043848 -0.4779055074204815  2.1671824130763 0.4980244878585698 -1.027636182799239  1.710213566460811 0.9718796190568162 -0.4957578884333736  1.845584590132108 0.2253887364997403 -4.583879812097906  1.579035044615276 0.2924902970866011 -5.101748935835201  1.409777182251665 0.7868327264427526 -5.07202467441607  -1.039178737375989 1.089168173550246 -5.170746090958521  -1.377687418630729 0.6683636420802941 -5.233117919580046  -1.641402128985454 0.4875654733502939 -4.648722230221863  -1.765467255797776 -0.2695484060062747 -1.079683539430899  -1.617858736076732 -0.08318463488274264 -0.5123563299218489  -1.474019211051276 0.4496529111656123 -0.5150171376928306  2.417677350191343 0.3274903893149403 -1.506992657970159 
[...]
<PointData  Tensors="stress"> 
<DataArray  type="Float64"  Name="stress"  NumberOfComponents="9" format="ascii">-5.2809779555155367e-01 -4.1429078246417214e-02 -1.5549035891925229e+00 -4.1429078246417214e-02 2.0870400326143851e-01 3.1674771205118180e-01 -1.5549035891925229e+00 3.1674771205118180e-01 1.1522708049129817e+00  -1.2469627067659355e+00 4.3537043749357557e-01 1.4013675702745005e+00 4.3537043749357557e-01 2.8855858165257358e+00 -6.0659186882081539e-01 1.4013675702745003e+00 -6.0659186882081539e-01 -2.7529074857130853e-02  -1.0529794790074520e+00 6.0953414410362317e-01 -1.4374120542059696e+00 6.0953414410362317e-01 2.9328296950581350e+00 5.7991524916447557e-01 -1.4374120542059696e+00 5.7991524916447557e-01 -2.1305391759452552e-01  -6.0137520888312435e-01 -3.2782839099606220e-01 1.3737190810805799e+00 -3.2782839099606220e-01 1.6659373109537343e-01 -7.9760404452924438e-01 1.3737190810805799e+00 -7.9760404452924438e-01 1.3783101180737856e+00  8.0326359661793789e-01 -6.3957733390359484e-02 3.4876505802134367e-01 -6.3957733390359525e-02 -6.0026207249546493e-01 2.1102445394040115e-01 3.4876505802134355e-01 2.1102445394040115e-01 -4.0584100347945955e-02  1.8153869344561255e+00 1.7346905844182653e-01 -3.4889871033396580e-01 1.7346905844182653e-01 -1.0288574017848870e+00 -4.4856648140556016e-01 -3.4889871033396586e-01 -4.4856648140556016e-01 -1.7545767163509890e-01  1.5263402041005839e-01 2.9599822534468267e-01 -5.1457939702356825e-01 2.9599822534468267e-01 -1.3913505151544825e-01 6.7808936255770635e-01 -5.1457939702356825e-01 6.7808936255770635e-01 5.4215488278281161e-02  3.2644253862231624e-02 1.8373305752924693e-01 3.2357028871069421e-01 1.8373305752924693e-01 3.1893535966301273e-01 -2.9945351694976780e-01 3.2357028871069421e-01 -2.9945351694976780e-01 -2.9052427704869876e-01  -1.6107269351388791e+00 -2.8624865745840727e-01 -8.1297613776684630e-01 -2.8624865745840727e-01 1.2286684681688176e+00 -3.2643334356484588e-01 -8.1297613776684630e-01 -3.2643334356484588e-01 1.1851523770338706e+00  -1.7973582538606983e+00 -3.5457307313519842e-01 -9.4386584871806378e-01 -3.5457307313519842e-01 1.8788971813927662e+00 -2.2119066000550325e-01 -9.4386584871806378e-01 -2.2119066000550325e-01 1.0965617485679422e+00  -2.1258159274952817e+00 -1.1664618571316261e-01 -8.1769783259272211e-01 -1.1664618571316261e-01 2.3026921069634207e+00 -4.3044431091914005e-03 -8.1769783259272200e-01 -4.3044431091914023e-03 1.3119362688013110e+00  -2.3400372148941284e+00 2.3334101566220253e-01 7.6855798462267200e-02 2.3334101566220250e-01 2.3125462951027962e+00 -3.7111922715786949e-01 7.6855798462267200e-02 -3.7111922715786949e-01 1.6939309982824189e+00  -2.0043935055298943e+00 -1.2825905121459032e-02 9.6220307589718046e-01 -1.2825905121459032e-02 3.0264786997571558e+00 -5.6979899821178825e-01 9.6220307589718046e-01 -5.6979899821178825e-01 8.3860219238416400e-01  -1.8718573700353949e+00 -4.3537072238374053e-01 7.9832617616837087e-01 -4.3537072238374047e-01 3.4806308669636157e+00 9.9863868198322263e-03 7.9832617616837087e-01 9.9863868198322263e-03 2.6826976101640720e-01  -1.9287590774322969e+00 -1.6838679187692868e-01 7.0927081394050584e-01 -1.6838679187692876e-01 3.6881348249396098e+00 1.5351126500064136e-03 7.0927081394050573e-01 1.5351126500064136e-03 2.0187151425496094e-01  -1.7384435455111964e+00 -6.5804818372691004e-02 1.0030970194581508e+00 -6.5804818372690962e-02 3.3408776829036526e+00 -4.0315877737155220e-01 1.0030970194581508e+00 -4.0315877737155220e-01 1.9157921590245153e-01  -1.5688281181401267e+00 2.5871618818557640e-01 1.3909152283876569e+00 2.5871618818557640e-01 3.1644849320565420e+00 -4.8232239540727057e-01 1.3909152283876569e+00 -4.8232239540727057e-01 3.2790046962924374e-01  -1.1984729472004880e+00 -1.0917947459433579e+00 1.6365598421007193e+00 -1.0917947459433579e+00 2.3974733975458227e+00 1.7173161677911220e-02 1.6365598421007193e+00 1.7173161677911220e-02 5.1077171374196018e-01  -4.5881534465170196e-02 -2.2489006007794234e+00 1.0602256526392757e+00 -2.2489006007794234e+00 1.0960189673754066e+00 5.3925229599260149e-01 1.0602256526392755e+00 5.3925229599260149e-01 5.7997748384067582e-01  1.5050997808697026e+00 -1.6038361578953422e+00 5.9552564621669679e-01 -1.6038361578953417e+00 -9.6316023588888444e-01 9.1756285102297175e-01 5.9552564621669679e-01 9.1756285102297175e-01 7.2077437185116178e-01  2.3729092399763307e+00 -4.4417529018605340e-01 2.4867078139992210e-01 -4.4417529018605340e-01 -1.5565044402388941e+00 1.2368678397274431e+00 2.4867078139992210e-01 1.2368678397274431e+00 5.7996683314624053e-01  2.0799782147131678e+00 8.7645234138496597e-01 -2.7182303111406608e-01 8.7645234138496608e-01 -1.3125797394764742e+00 1.6113916643252320e+00 -2.7182303111406614e-01 1.6113916643252322e+00 7.9095072043222447e-01  8.7450678013549965e-01 1.6446984025048177e+00 -7.4953032983601420e-01 1.6446984025048177e+00 2.2329670245588754e-01 1.4298693058304128e+00 -7.4953032983601420e-01 1.4298693058304128e+00 2.1828154220342116e-01  -5.1639582921237881e-01 1.5015095584036220e+00 -1.1297018538743071e+00 1.5015095584036220e+00 1.5532256954582271e+00 1.1197160488497586e+00 -1.1297018538743071e+00 1.1197160488497586e+00 3.8507169852879369e-01  -1.6271406072950529e+00 5.8172275910755036e-02 6.6335882970169902e-01 5.8172275910755022e-02 9.8030031872086676e-01 -1.2555026496872398e-02 6.6335882970169890e-01 -1.2555026496872403e-02 1.3529420863804855e+00  -1.6372965117197482e+00 -5.7622284272828575e-02 7.1569914586710892e-01 -5.7622284272828589e-02 1.7600276465372358e+00 -2.1222623908166194e-01 7.1569914586710892e-01 -2.1222623908166202e-01 7.4168246314244624e-01  -1.9634009571221707e+00 -1.7147054114817789e-01 6.3178574389223785e-01 -1.7147054114817789e-01 2.0311519968426581e+00 -8.4397962777529784e-02 6.3178574389223785e-01 -8.4397962777529756e-02 1.1474724392190541e+00  -2.2904889101451924e+00 -1.5166067124082774e-01 1.4802294068571142e-01 -1.5166067124082780e-01 2.4509962642812990e+00 2.3287230887793764e-01 1.4802294068571140e-01 2.3287230887793761e-01 1.3901787006090367e+00  -2.2000120736920872e+00 8.6186960686900294e-02 -5.4645340230254713e-01 8.6186960686900335e-02 2.7496664372057396e+00 6.3486572848256728e-01 -5.4645340230254724e-01 6.3486572848256728e-01 1.1518325097588320e+00  -1.9482503593351583e+00 -3.4478153097539838e-01 -5.7233397154193089e-01 -3.4478153097539838e-01 2.9753900579638510e+00 8.2028566477362130e-01 -5.7233397154193077e-01 8.2028566477362130e-01 6.4075391286532046e-01  -2.0039933946982074e+00 -2.3200476168540751e-01 -4.9681971124342350e-01 -2.3200476168540762e-01 2.9487823566217446e+00 9.8399561424419235e-01 -4.9681971124342372e-01 9.8399561424419235e-01 7.8416656079195124e-01  -2.2181978339157427e+00 3.3168615259284812e-01 -6.4301168666585928e-01 3.3168615259284806e-01 2.9847145230075105e+00 6.8029921806040550e-01 -6.4301168666585928e-01 6.8029921806040550e-01 1.1183330809131691e+00  -1.6898156673096139e+00 6.7098589185430269e-01 -1.3238344847920154e+00 6.7098589185430269e-01 2.7875872670856028e+00 8.8104979701162467e-01 -1.3238344847920154e+00 8.8104979701162434e-01 7.9260553304486792e-01  -1.0436616921882254e+00 1.7897746840426812e-01 1.2102932480126272e+00 1.7897746840426812e-01 2.7368645690405136e-01 -7.2876323208970106e-01 1.2102932480126272e+00 -7.2876323208970106e-01 1.8291887018794155e+00  -6.4301208365300699e-01 3.8945166939296672e-01 9.5382006408518361e-01 3.8945166939296672e-01 -6.6453069089307815e-02 -1.0748688030900904e+00 9.5382006408518361e-01 -1.0748688030900904e+00 1.6540677599164735e+00  -4.3246840797254743e-01 7.9170845628793818e-01 6.5538710594042104e-01 7.9170845628793818e-01 -3.8958007399236588e-01 -1.1433966685498294e+00 6.5538710594042104e-01 -1.1433966685498294e+00 1.8665214822247078e+00  6.7856590643733741e-03 4.2260742473855217e-01 1.9281140517189738e-01 4.2260742473855217e-01 -6.2777394993728397e-01 -1.3130326537090258e+00 1.9281140517189738e-01 -1.3130326537090258e+00 1.5653113279498791e+00  2.3424208175977559e-01 2.9127486212223458e-01 2.0805167140196739e-02 2.9127486212223458e-01 -1.0367015479693269e+00 -1.3397572007312057e+00 2.0805167140196739e-02 -1.3397572007312057e+00 1.9342982180302413e+00  2.2549476396884774e-01 -6.9102316116846599e-02 -5.1123300723692489e-01 -6.9102316116846599e-02 -9.4229782392210970e-01 -1.2317716640703786e+00 -5.1123300723692489e-01 -1.2317716640703786e+00 1.7858552153018608e+00  2.1019930088657002e-01 -3.7620872024578633e-01 -7.8065140015045098e-01 -3.7620872024578633e-01 -8.5723010948010181e-01 -1.1368535786086811e+00 -7.8065140015045098e-01 -1.1368535786086811e+00 1.5481150987640380e+00  -1.6997008875844419e-01 -5.3970609249467760e-01 -1.4152271218710821e+00 -5.3970609249467760e-01 -2.5350090042631773e-01 -5.8649500536702126e-01 -1.4152271218710821e+00 -5.8649500536702126e-01 1.4104000909055050e+00  -5.8731088775446993e-01 -4.3151024168111601e-01 -1.6540278460827000e+00 -4.3151024168111601e-01 -2.9708669930857520e-02 5.7445161808245354e-02 -1.6540278460827000e+00 5.7445161808245354e-02 1.6801340538353700e+00  5.5761341041795698e-01 1.9444126259493805e-01 2.7263848454331230e-01 1.9444126259493794e-01 -5.0578086898516950e-01 4.4591114445906643e-01 2.7263848454331235e-01 4.4591114445906632e-01 8.7856376481000281e-02  6.4175790059259397e-01 4.4723040273987608e-01 2.6994594530163801e-01 4.4723040273987613e-01 -6.3501411142998987e-01 5.4170781346939467e-01 2.6994594530163801e-01 5.4170781346939467e-01 2.2197247003551160e-01  -1.5133055229084674e-01 4.4058676183735657e-01 3.3465751857998466e-02 4.4058676183735679e-01 -7.1702239538054977e-02 5.6003158307675849e-01 3.3465751857998466e-02 5.6003158307675860e-01 3.1555143564989868e-01  -3.7399062499745589e-01 5.9405484416528698e-01 -5.2501647200019341e-01 5.9405484416528698e-01 7.2735034855070624e-01 4.0581583277273292e-01 -5.2501647200019341e-01 4.0581583277273281e-01 -1.2615215581372513e-01  -5.6156901618478827e-01 3.6237412460943252e-01 -4.3028207496229054e-01 3.6237412460943247e-01 1.0163682460096282e+00 3.0457230923668299e-01 -4.3028207496229054e-01 3.0457230923668288e-01 -2.1952441583003149e-01  -5.2104933751198323e-01 2.1290788433926480e-01 -3.3090315343756593e-01 2.1290788433926486e-01 7.4735654234376880e-01 8.7769465701547394e-02 -3.3090315343756588e-01 8.7769465701547394e-02 -1.0235895225161531e-01  -4.2085814600025340e-01 -8.3848217978633760e-02 -4.3921784520768981e-01 -8.3848217978633705e-02 6.8869723727615539e-01 -1.6972984384692522e-01 -4.3921784520768981e-01 -1.6972984384692527e-01 -1.3753838723968864e-01  -3.3989072703192980e-01 -5.3975267093301360e-01 -2.8551067018282300e-01 -5.3975267093301349e-01 8.3033179308794403e-01 -2.1341440395128888e-01 -2.8551067018282306e-01 -2.1341440395128886e-01 -2.9470663059924757e-01  -5.7852429593857124e-01 -5.2267211507068745e-01 -5.9916662281455968e-01 -5.2267211507068745e-01 4.5765505300163523e-01 2.8764961343791934e-01 -5.9916662281455946e-01 2.8764961343791934e-01 2.6289584706119451e-01  5.4533510212911029e-01 -6.2686385367067263e-02 -8.3644517915955396e-01 -6.2686385367067207e-02 -7.7944377838428669e-01 1.8024167385262496e-01 -8.3644517915955385e-01 1.8024167385262499e-01 3.3364026658925339e-01  1.3411698031428700e+00 1.9608845274352896e-01 -7.7493558256762107e-01 1.9608845274352896e-01 -9.3236826364233638e-01 -6.1325040860481950e-01 -7.7493558256762129e-01 -6.1325040860481950e-01 3.4141131918412074e-02  2.0660288551559103e+00 -3.5201123842428794e-01 -5.3443798185246083e-01 -3.5201123842428789e-01 -1.6009576536503674e+00 -9.5624763490830866e-01 -5.3443798185246083e-01 -9.5624763490830866e-01 7.2165046273566491e-01  1.8991953350732571e+00 -3.2102108382036521e-01 -5.6759408460068028e-01 -3.2102108382036537e-01 -9.6346045380617951e-01 -1.5488164942981106e+00 -5.6759408460068028e-01 -1.5488164942981106e+00 3.2689246058870614e-01  1.4143034657256655e+00 -1.1386896082062321e-01 -2.5657884004277515e-01 -1.1386896082062324e-01 -6.4390082707699003e-01 -1.0317633328406504e+00 -2.5657884004277515e-01 -1.0317633328406506e+00 -2.2670873960505561e-01  1.3176502515018758e+00 8.8556911146843498e-02 -2.8145438952301902e-02 8.8556911146843456e-02 -8.6647639429017687e-01 -6.3423020027117627e-01 -2.8145438952301895e-02 -6.3423020027117627e-01 -7.8148434165284983e-02  1.0759285508128416e+00 -1.6311165925004162e-01 -3.2775749718897651e-01 -1.6311165925004159e-01 -1.1576556566381522e+00 -4.5557438150940838e-01 -3.2775749718897657e-01 -4.5557438150940816e-01 5.0954667739859982e-01  7.4560173207490887e-01 -3.5626834229374105e-01 -2.5345706422414915e-01 -3.5626834229374110e-01 -9.8759766965067608e-01 -1.7583540699734210e-01 -2.5345706422414915e-01 -1.7583540699734210e-01 5.0840793018265351e-01  5.8428268879891643e-01 -1.9425693061601573e-01 -1.3178298266759083e-02 -1.9425693061601573e-01 -7.1326157088550202e-01 8.0787836648748917e-02 -1.3178298266759089e-02 8.0787836648748890e-02 2.0761749671435639e-01  3.3181960116643600e-01 -6.7127806689012826e-01 2.8664887821618779e-01 -6.7127806689012837e-01 -3.4783097600102253e-01 7.3860624506316452e-01 2.8664887821618779e-01 7.3860624506316452e-01 2.6909511750807286e-01  3.8271412416989564e-01 -4.7510335973585627e-01 -1.7899860348344604e-01 -4.7510335973585627e-01 -6.5330825914546264e-01 1.1669679742935204e+00 -1.7899860348344604e-01 1.1669679742935204e+00 8.0281638302098868e-01  1.7288144321912957e-01 1.5088078971010757e-01 -3.3230993747157617e-01 1.5088078971010757e-01 -2.0788912617692432e-01 6.2206426342795207e-01 -3.3230993747157617e-01 6.2206426342795207e-01 4.6768197326053911e-02  1.2392274478901127e-01 8.3857334615238810e-02 -2.5275398006027677e-01 8.3857334615238810e-02 -9.4855322020207536e-02 7.0374368188666669e-01 -2.5275398006027666e-01 7.0374368188666669e-01 -2.0188148515513850e-02  3.3893089746748067e-01 -9.2233433389311420e-02 -1.4750460069588792e-01 -9.2233433389311420e-02 -2.9600133302461640e-01 5.7268128145298403e-01 -1.4750460069588797e-01 5.7268128145298403e-01 -7.7683492386880604e-02  3.4249672888298716e-01 -1.9770154385672753e-01 9.8159418974355830e-02 -1.9770154385672753e-01 -2.3532549968458635e-01 5.7992857699385969e-01 9.8159418974355830e-02 5.7992857699385969e-01 -7.2340511429530796e-02  2.8318775918973443e-01 -7.7582274684056957e-02 2.8886810296973081e-01 -7.7582274684056957e-02 -1.3222939932229258e-01 6.5666175650838920e-01 2.8886810296973081e-01 6.5666175650838920e-01 -1.1143028141068435e-01  4.5564267682213033e-01 -5.1202142053287054e-02 9.1642361217622786e-02 -5.1202142053287082e-02 3.7200225423168906e-02 5.3379515513885989e-01 9.1642361217622828e-02 5.3379515513885989e-01 -4.6600073161413580e-01  5.6950594267455690e-01 -2.3902666790069710e-01 2.0463765999915781e-01 -2.3902666790069710e-01 9.4012364749513522e-02 2.4337449107634909e-01 2.0463765999915795e-01 2.4337449107634909e-01 -5.9387682686437071e-01  2.4854355182872589e-01 -3.2245312229434692e-01 3.9463170312956519e-01 -3.2245312229434692e-01 1.7557253654197089e-01 3.2756165798723835e-01 3.9463170312956519e-01 3.2756165798723835e-01 -3.3122803744875651e-01  1.7374152443242361e-01 -3.9113403386559253e-01 3.5671321965565400e-01 -3.9113403386559253e-01 4.2895933618517829e-01 9.1704032542414896e-02 3.5671321965565411e-01 9.1704032542414896e-02 -4.9924178774770689e-01  8.3173378722513125e-02 -3.2671543101531125e-01 4.2017022486415562e-01 -3.2671543101531125e-01 5.0911651371246203e-01 9.7567227480939087e-03 4.2017022486415551e-01 9.7567227480939087e-03 -4.9514333507903147e-01  -1.0234040895983400e-01 -1.7806854972005320e-01 3.7168662897035648e-01 -1.7806854972005323e-01 5.8295041012417292e-01 -3.4169606448578332e-02 3.7168662897035637e-01 -3.4169606448578332e-02 -3.9947270524873840e-01  -1.6581896271667582e-01 3.5431545503789338e-02 4.1083022228297750e-01 3.5431545503789338e-02 4.4736737500441182e-01 -1.0053410929089267e-01 4.1083022228297750e-01 -1.0053410929089267e-01 -2.1022955536313498e-01  1.8153907764121145e-02 4.3003601779887109e-02 2.7986642084740798e-01 4.3003601779887123e-02 4.6333578447836926e-01 -1.8802447987145679e-01 2.7986642084740798e-01 -1.8802447987145679e-01 -4.3297424495681025e-01  1.2273204493899208e-01 -2.2244582180868658e-01 -1.0484634334764038e-01 -2.2244582180868658e-01 5.2580791496009882e-01 -3.0087816881130058e-01 -1.0484634334764045e-01 -3.0087816881130058e-01 -5.8522157776491635e-01  -8.4898557764808508e-02 2.3193833181671517e-01 2.2030059442907535e-01 2.3193833181671517e-01 3.5878019440037540e-01 -2.3716020360256801e-01 2.2030059442907535e-01 -2.3716020360256801e-01 -2.1704058381564864e-01  3.8727067718880875e-01 -2.7958408275797936e-01 2.7455086053539574e-01 -2.7958408275797919e-01 -5.5629178364455578e-01 1.9309208337163902e-01 2.7455086053539574e-01 1.9309208337163905e-01 2.7019912285729347e-01  5.8786973370114115e-01 -2.4787976051565114e-01 3.1945146104129624e-01 -2.4787976051565114e-01 -6.7735835700652747e-01 1.9881720844578961e-02 3.1945146104129640e-01 1.9881720844578999e-02 2.0042329138128398e-01  7.9931672027968770e-01 -6.0589313107361575e-01 3.3120887508969843e-01 -6.0589313107361575e-01 -9.7333562010060182e-01 -2.4166518850168923e-02 3.3120887508969848e-01 -2.4166518850168923e-02 5.0276570932308473e-01  1.1485647902804741e+00 -5.6005898530916498e-01 4.0750526995468095e-01 -5.6005898530916487e-01 -1.3152278503433288e+00 1.8422021476653419e-01 4.0750526995468112e-01 1.8422021476653419e-01 7.3809795192280581e-01  1.0022689065549615e+00 -5.4651587092963716e-01 3.2745452373454448e-01 -5.4651587092963705e-01 -1.2530452802835033e+00 2.1815643595638606e-01 3.2745452373454453e-01 2.1815643595638606e-01 7.6524891488722424e-01  8.3981041936855394e-01 -3.6352696412233587e-01 1.7648548081504536e-01 -3.6352696412233587e-01 -1.1270978299824963e+00 1.5476357680583153e-01 1.7648548081504534e-01 1.5476357680583153e-01 6.2765542737650681e-01  5.2825629429096932e-01 -2.7892222112577036e-01 3.5212744072289026e-02 -2.7892222112577036e-01 -8.5965657106762128e-01 7.0493355785952047e-02 3.5212744072289026e-02 7.0493355785952075e-02 5.0290755392196507e-01  3.0091196323014813e-01 -2.6950753425434243e-01 2.1292593160252607e-01 -2.6950753425434243e-01 -5.1438569474712181e-01 -1.6459505728783816e-01 2.1292593160252607e-01 -1.6459505728783816e-01 2.7421024173306202e-01  3.1075209412744625e-01 4.1245080032530079e-02 5.0078103816409314e-01 4.1245080032530079e-02 -1.1783374394361437e-01 9.0208458238438372e-02 5.0078103816409314e-01 9.0208458238438372e-02 -1.4900291801770743e-01  1.2483843408540829e+00 6.2814241404835214e-01 -2.1836588344743288e-01 6.2814241404835169e-01 -8.2803746979198756e-01 -4.7724980415002061e-01 -2.1836588344743293e-01 -4.7724980415002061e-01 -6.7349717295680858e-02  9.8238576355332274e-01 1.6551676008835483e+00 3.3478875487684506e-01 1.6551676008835483e+00 -1.6084952857861481e-01 -7.0043597167152860e-01 3.3478875487684512e-01 -7.0043597167152860e-01 5.3472606380332140e-02  4.3222199813040491e-01 1.4160464791588749e+00 6.0184328343849999e-02 1.4160464791588749e+00 -1.3280567958957309e-01 -4.3959415979198418e-01 6.0184328343850006e-02 -4.3959415979198418e-01 1.6447042142421631e-01  -5.7735579571322859e-01 1.1902338658483818e+00 5.0474437909918846e-01 1.1902338658483815e+00 8.5868032064042277e-01 -4.0866231485175930e-01 5.0474437909918846e-01 -4.0866231485175930e-01 2.1977491353830628e-01  -7.9979564567770278e-01 6.5365339001971134e-01 3.2651826881990859e-01 6.5365339001971134e-01 8.1002082290264799e-01 -3.3162710604276063e-01 3.2651826881990859e-01 -3.3162710604276063e-01 2.8461840371239056e-01  -6.0083949136369685e-01 3.1875507782813223e-01 2.6257086783225952e-01 3.1875507782813234e-01 8.4664600857734795e-01 6.8864627989352811e-03 2.6257086783225991e-01 6.8864627989352811e-03 -1.2589793381776149e-01  -5.1221825750312189e-01 -1.6216043111806938e-02 2.3697884259383115e-01 -1.6216043111806931e-02 6.4931148888921120e-01 -1.4791648011742516e-02 2.3697884259383123e-01 -1.4791648011742516e-02 -8.2583644685822091e-02  -4.5989641274130794e-01 -1.7292829107443455e-01 3.0376669702440535e-02 -1.7292829107443447e-01 4.6641111561384668e-01 -2.5029336399882026e-02 3.03766