<?xml version="1.0"?>
<VTKFile type="UnstructuredGrid"  version="0.1"  >
<UnstructuredGrid>
<Piece  NumberOfPoints="1268" NumberOfCells="4847">
<Points>
<DataArray  type="Float64"  NumberOfComponents="3"  format="ascii">1.994716987487452 0.01317707561264319 -1.202466945460223e-11  1.374072606111497 -0.08614134488653273 -5.388997575085332  -1.285941478930618 0.1916557790035214 -5.691288663606836  -1.59032616235459 -0.4515196446136259 1.626303258728257e-17  0.4950030257755884 2.521650519233041 -5.495391852657774  -0.4107718940653654 -2.429115409112172 -5.58531208084276  -0.9314707163843408 -3.006923447963563 4.87890977618477e-17  1.161824811771535 2.948440156756841 -3.391384395534658e-14  2.146749234505421 0.002696741478414759 -0.5615078450779066  2.330988047973839 -0.000873250973709995 -1.113141311680313  2.540713632977715 -0.1384292375506191 -1.637427654548237  2.645241452520652 -0.2872312815961211 -2.18637082393926  2.504842461151312 -0.2752146673621067 -2.746850782899552  2.287876352721185 -0.2088259978706829 -3.283011632728322  2.137771360922677 -0.2093380261300688 -3.844996501809416  1.970142554575494 -0.2193701374385486 -4.401638277082749  1.701580801829277 -0.1696632515169769 -4.915066532844666  1.398049690886424 0.4419377546899956 -5.387643705321969  1.183972204621215 0.9208338616597355 -5.413149504812257  0.7621482426349403 1.234356207118232 -5.461782499987256  0.2539805730796886 1.370727420898931 -5.519751404145364  -0.2689415860383004 1.319053689498898 -5.578906487138381  -0.7357170559581984 1.076180709179107 -5.631191713357971  -1.086003096318238 0.6812820615514149 -5.669884670156524  -1.65706961757681 -0.5275128747266272 -0.6240725009925172  -1.829082870387909 -0.8347372240299333 -1.153553189134448  -2.030635262011336 -1.097965926806997 -1.693320688638939  -2.148557703924963 -0.9683820133813712 -2.295450526931833  -2.119047321408695 -0.7521727279271558 -2.890676896601294  -1.972500555455803 -0.7106310836492745 -3.509380855831461  -1.885028119342598 -0.4902108162504233 -4.093718100793141  -1.832050776792238 -0.1313823297003599 -4.617858136599065  -1.636180550340053 0.1151199882480144 -5.165527944859976  -1.540434086810702 0.1014447694855235 -7.644826989049428e-17  -1.339902801239663 0.6191128040412099 2.218327606354497e-17  -0.9949589579071262 1.053322092476122 2.12059320661159e-17  -0.5243975458638882 1.346285776146202 7.754217898549941e-16  0.01399251627036286 1.481823287560149 3.252316763596149e-17  0.5696211504784076 1.47677978548424 -7.207855520904863e-17  1.105448032340458 1.331487337928338 1.951563910473908e-16  1.561367740818086 1.018090979386763 -2.179459114756194e-16  1.860006992193919 0.551530302300456 1.369433074745588e-16  -0.152869286718376 2.506583809965366 -5.568804938302105  -0.7781210310064858 2.335338381675429 -5.639249366957451  -1.340550096787874 2.011723800088065 -5.702178028336585  -1.803922993566052 1.555830170950866 -5.753534898075912  -2.144678763029901 1.000979069722826 -5.790734833138769  -2.346903237737564 0.3811866585909049 -5.812061421922149  -2.406990243842066 -0.2684488461825228 -5.817196438260218  -2.318433628103212 -0.9144163570965761 -5.805488779558074  -2.059391262210163 -1.511004864267824 -5.774580158166454  -1.615755841275718 -1.983465489741105 -5.72306417450185  -1.043145925381342 -2.287058241276404 -5.657361969815248  -0.6986882361605687 -2.420627649803484 -5.024556445072709  -0.8272574030199392 -2.685291244074475 -4.476216325063944  -0.8113210073272845 -3.118860027310894 -4.01596683617901  -0.7618552434953355 -3.481598098596065 -3.504026669625047  -0.7509882165597778 -3.609083979854663 -2.886473298216772  -0.7986167670519319 -3.732483084086931 -2.268445488219849  -0.8276969497603353 -3.810997815301134 -1.64593496945388  -0.7425506523451623 -3.557242155569485 -1.078322423839125  -0.7147449622328144 -3.21189056194362 -0.5511080601316157  -1.482234509376526 -2.778582553401298 -5.854479658363816e-16  -1.970737176894139 -2.437284655419533 2.764697292186607e-16  -2.362818572203899 -1.988727212877528 2.439101268600111e-16  -2.642390785384022 -1.462244173776716 5.051059276813266e-16  -2.812149102113852 -0.89052423419162 2.276851973687203e-16  -2.877946727920729 -0.2976446157883296 -1.219909928720168e-16  -2.842947107925845 0.2978601752284433 4.065446096494693e-17  -2.70313036896374 0.8776122116387211 -5.041496169361013e-16  -2.452324348076021 1.418519584933707 4.379274460317988e-16  -2.098265626135573 1.898294456130726 1.951060033519619e-16  -1.658391347368763 2.301023318502569 -1.789574489620802e-16  -1.154148079923361 2.619757341302747 -2.081203863085907e-15  -0.6042202207747882 2.851073703499478 -3.577841418755692e-16  -0.02416138323675775 2.990516581461941 4.065982498622179e-16  0.5710641261211448 3.028216945076794 -1.46882551317968e-16  0.6414151130412097 2.696325287154043 -4.983333021490838  0.771852374565919 2.778456367279237 -4.445188759107248  0.8805845204306011 2.73078881179073 -3.897720120696569  0.9481597620953167 2.69798349057175 -3.343104559074628  0.9815370707090804 2.778214865778854 -2.789250505759619  1.013475345489448 2.861817704396183 -2.235671116027784  1.055849759321274 2.898356228459238 -1.677594140621302  1.093646323460014 2.92793989028903 -1.118725590781912  1.124098871622056 2.957526991478201 -0.5594169689370629  0.2477015793419729 -2.415655802610486 -5.510682951113449  0.8844491790088972 -2.245867158009595 -5.438931443942415  1.464891069119211 -1.932330028996181 -5.373934600293736  1.955087092649627 -1.489613175355717 -5.319502697776375  2.318355026965356 -0.937054784961175 -5.279744576064058  2.524994411863564 -0.307899182343253 -5.257941630215678  2.574632820450045 0.3531084349228537 -5.254020561031156  2.465743861849647 1.006614152640354 -5.268052816559671  2.183897076015212 1.604484044160622 -5.301550147358176  1.722560240631265 2.07491696755195 -5.35506775502591  1.13806318635062 2.378906583716481 -5.422118662603529  1.742182153284979 2.73179858498085 5.854691697147836e-16  2.262480931380501 2.395264875892136 -2.601681534737615e-16  2.698000706832733 1.954727370266727 -3.903113804560263e-16  3.021530388777258 1.426473918441798 1.707421408502106e-16  3.223363606607101 0.8405687193648443 -2.844806418042028e-16  3.305434793487241 0.2261994274297442 -4.472186606099012e-16  3.269241566985055 -0.3926051469820059 3.171555149681837e-16  3.113478077610213 -0.9924495549400153 3.510830505762065e-16  2.840400132149515 -1.548806515270482 -1.707368614952523e-16  2.466120284856568 -2.042983582774378 9.732831365154574e-17  2.008125599488538 -2.460814027017948 -3.577575055983979e-16  1.482521285196868 -2.789563899556613 -4.886146623064541e-17  0.9057866143556688 -3.01678997208197 -2.439392613813594e-16  0.2964958724913082 -3.130681163554852 3.414395345104792e-16  -0.32338307292875 -3.126978161260848 2.926910878106614e-16  -1.29067345658392 -0.3506098753383553 -5.690421630247788  -1.068897680254163 -0.8451623229646739 -5.663999894259847  -0.6782440885714781 -1.219621806060448 -5.6187489875115  -0.168757542531344 -1.390394566692369 -5.560546895724229  0.3611301401510615 -1.294122251639114 -5.500717901478111  0.8191548613516448 -1.005201308695582 -5.449538098373106  1.16817203978903 -0.5892762115769014 -5.411042670828763  1.960898302630318 -0.551652302616722 -8.131516293641286e-17  1.751009740180289 -1.077278642631261 7.445724005953314e-16  1.394016468000002 -1.516729095803803 1.136104663605282e-15  0.9227767039454898 -1.830301465573364 3.434443593283319e-16  0.3780412068884804 -1.984007749105097 8.617772484356591e-16  -0.1885780664025548 -1.977994130030172 2.357202029695971e-16  -0.7327557451871473 -1.821291124380143 1.942410916395698e-17  -1.191068596016128 -1.491774666596192 2.975009434367945e-16  -1.480405544894888 -1.006855825633415 6.954512630084263e-16  -1.812414118534285 0.2561131097252937 -2.664867827914479  2.421751940242729 0.6298287624476981 -1.933377861698098  0.7556418177061754 1.42269463362527 -4.617654324361507  0.003134751711410342 1.574821943356493 -0.9318675177876981  1.015098001669947 1.51699057942374 -0.9441494884276413  0.6193243625380082 1.764115149411371 -1.862230514405671  -0.4757031201037318 1.549728101933577 -1.958273018773558  0.1126459993007786 1.698838152590054 -2.957602797129454  -0.3405660022430232 1.569615851499001 -4.678135257405353  1.818199099779932 0.7365610114574719 -3.763003518505052  -0.9541815370276669 1.23451227632913 -2.875526912859068  -1.269464226480212 1.016489154450913 -4.672047638709048  1.301562892980348 1.557566760682666 -2.802482532053872  -0.7813756340336595 1.414221906310649 -3.725761628685261  -1.58370798409762 0.5643609111372817 -3.581008460136619  -0.988817348255397 1.158392548936659 -1.014254585170146  -1.607700527190565 0.2800106654898483 -1.030081240453645  -1.388203055800784 0.7951310659851955 -1.943712885648593  0.8261955720421881 1.570157055202129 -3.620947225245673  1.681455131778566 1.410849015379531 -1.876189895849114  1.878739160554727 0.943024132521903 -0.9866418074548234  2.103426639579445 1.000735947836943 -2.593434794762663  1.62623803052506 0.6468498306152269 -4.727220189271843  -1.882943490361709 -0.1546739965127431 -1.761716647663214  0.05868355051519467 1.656538949473053 -3.863342338366238  2.465845305360337 0.2632819454094029 -2.663569745038379  1.994842599423799 0.5019775153043848 -0.4779055074204815  2.1671824130763 0.4980244878585698 -1.027636182799239  1.710213566460811 0.9718796190568162 -0.4957578884333736  1.845584590132108 0.2253887364997403 -4.583879812097906  1.579035044615276 0.2924902970866011 -5.101748935835201  1.409777182251665 0.7868327264427526 -5.07202467441607  -1.039178737375989 1.089168173550246 -5.170746090958521  -1.377687418630729 0.6683636420802941 -5.233117919580046  -1.641402128985454 0.4875654733502939 -4.648722230221863  -1.765467255797776 -0.2695484060062747 -1.079683539430899  -1.617858736076732 -0.08318463488274264 -0.5123563299218489  -1.474019211051276 0.4496529111656123 -0.5150171376928306  2.417677350191343 0.3274903893149403 -1.506992657970159 
[...]
<PointData  Tensors="stress"> 
<DataArray  type="Float64"  Name="stress"  NumberOfComponents="9" format="ascii">-3.5919018760460686e-01 -1.4959084716539464e-01 -3.2417320901088429e+00 -1.4959084716539464e-01 7.4716379882757800e-01 9.5494000798844736e-02 -3.2417320901088429e+00 9.5494000798844736e-02 2.8425734777691858e+00  -1.7340107106537910e+00 5.9327367352091409e-01 2.0935169071977295e+00 5.9327367352091409e-01 5.5789896155870222e+00 -1.2220243750412350e+00 2.0935169071977295e+00 -1.2220243750412352e+00 8.6333621699490415e-01  -1.2528940701171127e+00 9.6120168878933410e-01 -2.3918565222164414e+00 9.6120168878933399e-01 5.6044165205156364e+00 1.2020093686448026e+00 -2.3918565222164414e+00 1.2020093686448023e+00 5.6647595119286376e-01  -5.3108607249997419e-01 -5.4854198752569772e-01 2.9436111626038945e+00 -5.4854198752569772e-01 6.8658324120747505e-01 -9.4027130516381263e-01 2.9436111626038959e+00 -9.4027130516381263e-01 3.1563658864260997e+00  1.3737606151904060e+00 -8.5743806269706194e-02 7.1582480555879546e-01 -8.5743806269706235e-02 -1.0549300192024240e+00 5.1807730158186738e-01 7.1582480555879546e-01 5.1807730158186738e-01 2.2351447075915104e-01  2.6973839277565870e+00 -1.6765545081758454e-02 -7.1056088068618151e-01 -1.6765545081758454e-02 -1.6990304977543662e+00 -5.2047074751252553e-01 -7.1056088068618151e-01 -5.2047074751252553e-01 2.9327108901312715e-01  3.6093808842252567e-01 4.0648629332513914e-01 -9.4183754933374331e-01 4.0648629332513914e-01 -1.4648171851276987e-01 1.8101986310819533e+00 -9.4183754933374331e-01 1.8101986310819533e+00 5.5341003217063600e-01  1.0950257949793603e-01 4.0187701167322321e-01 7.3692930872713525e-01 4.0187701167322321e-01 7.2240384539020741e-01 -6.8754971850172475e-01 7.3692930872713525e-01 -6.8754971850172475e-01 -5.3509554951166061e-01  -2.3251603265650664e+00 -5.4258856973732494e-01 -1.7061140829754664e+00 -5.4258856973732494e-01 2.8063699838747631e+00 -9.1823447728852625e-01 -1.7061140829754664e+00 -9.1823447728852625e-01 2.6306297719221612e+00  -2.5087846994170535e+00 -6.5829344745921559e-01 -1.5923271014878861e+00 -6.5829344745921547e-01 3.9447913271573847e+00 -8.1755244205233524e-01 -1.5923271014878861e+00 -8.1755244205233524e-01 2.4451513162157910e+00  -2.8673289015118653e+00 -1.3715364783571529e-01 -1.4100651268254483e+00 -1.3715364783571529e-01 4.5381852969662146e+00 -4.5791465623684563e-01 -1.4100651268254483e+00 -4.5791465623684563e-01 2.7903532335579864e+00  -3.1537617127933930e+00 3.7710737832823948e-01 5.6506216474021660e-02 3.7710737832823948e-01 4.4997045864625278e+00 -8.5055742800102185e-01 5.6506216474021660e-02 -8.5055742800102185e-01 3.4715232110624639e+00  -2.5530108819408244e+00 -7.5727172453114722e-02 1.6643769894881655e+00 -7.5727172453114722e-02 5.4847628589710764e+00 -1.0982198594119144e+00 1.6643769894881659e+00 -1.0982198594119144e+00 2.1509957154212196e+00  -2.3868184082154724e+00 -7.2259873536195296e-01 1.4471421551201449e+00 -7.2259873536195296e-01 6.1165579950073274e+00 -3.3946217169856774e-01 1.4471421551201449e+00 -3.3946217169856768e-01 1.2422219169017079e+00  -2.5454461542833839e+00 -2.8840044166556883e-01 1.2701723984426301e+00 -2.8840044166556894e-01 6.3664318508827913e+00 -2.2406756418617499e-01 1.2701723984426301e+00 -2.2406756418617502e-01 1.2819509444519646e+00  -2.2962916160252713e+00 -8.1801257753591865e-03 1.7306938905231657e+00 -8.1801257753591865e-03 6.0183737781889546e+00 -6.6501376006799084e-01 1.7306938905231652e+00 -6.6501376006799084e-01 1.2410630652206391e+00  -1.7345524621538460e+00 3.9043281604486435e-01 2.3143728251561986e+00 3.9043281604486435e-01 5.7957430581010847e+00 -8.4817446296599253e-01 2.3143728251561986e+00 -8.4817446296599253e-01 1.0532237722035875e+00  -1.3735377699614011e+00 -1.8988518583853842e+00 2.5405587976893109e+00 -1.8988518583853842e+00 4.6777689463187180e+00 -2.5118615815563938e-01 2.5405587976893109e+00 -2.5118615815563933e-01 1.4264363516535898e+00  7.9276440029844941e-01 -3.7646536202870746e+00 1.9614098065035555e+00 -3.7646536202870746e+00 2.3205816851679240e+00 7.1748033044489101e-01 1.9614098065035555e+00 7.1748033044489057e-01 1.6196258910221777e+00  3.4310874264347500e+00 -2.8561134644089754e+00 1.4258876509194787e+00 -2.8561134644089754e+00 -9.7373419435538178e-01 1.4413095726151635e+00 1.4258876509194789e+00 1.4413095726151635e+00 1.8093632671453692e+00  4.6213430365044497e+00 -6.4128289912342795e-01 8.6043221856143715e-01 -6.4128289912342795e-01 -2.0759340457093769e+00 2.1871232084732273e+00 8.6043221856143726e-01 2.1871232084732273e+00 1.8838460792720497e+00  4.2382113666483221e+00 1.6150185803604664e+00 -1.7240171771141141e-01 1.6150185803604664e+00 -1.4575443100942747e+00 2.6862244690565698e+00 -1.7240171771141138e-01 2.6862244690565702e+00 1.8796445175949321e+00  2.1983138059602743e+00 3.0359620375432605e+00 -9.0411185483486611e-01 3.0359620375432605e+00 9.0373830877558781e-01 2.5680435814794884e+00 -9.0411185483486611e-01 2.5680435814794884e+00 1.2130516501258735e+00  -8.6468976201785619e-02 2.7735027584160603e+00 -1.7156061397143891e+00 2.7735027584160603e+00 3.4853637265146071e+00 2.0965715183477607e+00 -1.7156061397143891e+00 2.0965715183477616e+00 1.1608747764790786e+00  -2.4589431825066188e+00 1.2605619479273581e-02 1.4652816197722465e+00 1.2605619479273581e-02 2.3408426546529912e+00 1.5465241472475974e-01 1.4652816197722465e+00 1.5465241472475974e-01 2.7682244441377106e+00  -2.4189422237059532e+00 -2.7111983512444288e-01 1.4519079784371685e+00 -2.7111983512444288e-01 3.6993932746024751e+00 2.6742028813291806e-02 1.4519079784371685e+00 2.6742028813291831e-02 1.8507054786224695e+00  -2.7614652690304782e+00 -4.3325617819449147e-01 1.2591296473133238e+00 -4.3325617819449147e-01 4.0803219788881337e+00 3.4105086122138095e-01 1.2591296473133240e+00 3.4105086122138101e-01 2.6407385520481066e+00  -3.1424341802751741e+00 -3.3581122602720387e-01 2.4841511084395568e-01 -3.3581122602720381e-01 4.6990206088232593e+00 7.1169580519607556e-01 2.4841511084395565e-01 7.1169580519607556e-01 3.0458730185760001e+00  -3.0118523410728768e+00 -3.0042904627013728e-02 -7.1901275567473799e-01 -3.0042904627013662e-02 5.1897035202333406e+00 1.2783617891365651e+00 -7.1901275567473799e-01 1.2783617891365651e+00 2.7261926094814553e+00  -2.7036603627121290e+00 -5.0405549966518415e-01 -9.5571787718100731e-01 -5.0405549966518393e-01 5.7088910083406015e+00 1.4343101023127796e+00 -9.5571787718100731e-01 1.4343101023127796e+00 1.9289951059264010e+00  -2.7527408021490278e+00 -2.9940561019412104e-01 -8.0971227546702185e-01 -2.9940561019412093e-01 5.6613055717474099e+00 1.6823632268601523e+00 -8.0971227546702185e-01 1.6823632268601523e+00 2.0685054628098158e+00  -2.8657029832505465e+00 5.3089437933693440e-01 -1.0397349085697298e+00 5.3089437933693429e-01 5.5273692473620830e+00 1.4077265601090458e+00 -1.0397349085697298e+00 1.4077265601090461e+00 2.5156919478821553e+00  -2.1783315002168790e+00 8.7040032576032422e-01 -1.9854562166147165e+00 8.7040032576032400e-01 5.3990146623668691e+00 1.4916881343748400e+00 -1.9854562166147165e+00 1.4916881343748403e+00 1.9660067528748775e+00  -1.1037390313144675e+00 1.2641891818139228e-01 2.7494906269045551e+00 1.2641891818139228e-01 9.1601745075465857e-01 -1.0900119505784132e+00 2.7494906269045547e+00 -1.0900119505784132e+00 3.8191232958585997e+00  -6.6436249575963047e-01 5.8094290411994931e-01 2.2777063278897911e+00 5.8094290411994931e-01 4.6723391443295503e-01 -1.8731536455945712e+00 2.2777063278897911e+00 -1.8731536455945712e+00 3.6495333842694682e+00  -3.2285892829666035e-01 1.1764101277917696e+00 1.7683318081387653e+00 1.1764101277917696e+00 1.1248734728189632e-02 -2.2107605151954668e+00 1.7683318081387651e+00 -2.2107605151954668e+00 4.0123142959629003e+00  4.0962905678021649e-01 7.5856772248014792e-01 8.6126194880674622e-01 7.5856772248014792e-01 -4.9586092032889040e-01 -2.7182904203677358e+00 8.6126194880674622e-01 -2.7182904203677358e+00 3.7440564259578908e+00  7.9599935027864877e-01 5.5229200878161744e-01 4.2706171359672801e-01 5.5229200878161744e-01 -1.0181467011476444e+00 -2.8415156365234164e+00 4.2706171359672801e-01 -2.8415156365234164e+00 4.2073561983249466e+00  8.7449507140209626e-01 -2.5745984456116550e-02 -6.8424557013027265e-01 -2.5745984456116550e-02 -9.8072505153578327e-01 -2.8557506569788411e+00 -6.8424557013027254e-01 -2.8557506569788411e+00 4.1799618365867763e+00  8.4352637618410431e-01 -4.7381923329628128e-01 -1.2655718778722764e+00 -4.7381923329628128e-01 -9.5530181955965399e-01 -2.6622188191975624e+00 -1.2655718778722764e+00 -2.6622188191975624e+00 3.6371000867211860e+00  3.3453293332604639e-01 -8.9693116330907985e-01 -2.6855279849531670e+00 -8.9693116330907985e-01 -2.2616708159873683e-02 -1.7344997621348957e+00 -2.6855279849531670e+00 -1.7344997621348957e+00 3.6676300835229836e+00  -4.2771225771203641e-01 -7.3333683656820248e-01 -3.2672577792404112e+00 -7.3333683656820248e-01 4.1556679050189055e-01 -6.1198140170573379e-01 -3.2672577792404112e+00 -6.1198140170573356e-01 4.1562079792987969e+00  1.0999723171568452e+00 5.0108131185973448e-01 5.3718628685918246e-01 5.0108131185973448e-01 -8.5351469438571348e-01 9.3106971155575613e-01 5.3718628685918246e-01 9.3106971155575635e-01 3.2091027271621558e-01  1.0663846072786189e+00 9.6165544700226446e-01 3.8372724309195094e-01 9.6165544700226446e-01 -7.7945239335010419e-01 1.0408173727406693e+00 3.8372724309195100e-01 1.0408173727406693e+00 4.4846319658854039e-01  1.3755155281603945e-01 1.0624188305136657e+00 6.1194058240371843e-02 1.0624188305136657e+00 -1.6641582498017249e-01 1.0734946342381384e+00 6.1194058240371843e-02 1.0734946342381384e+00 5.5500587779441857e-01  -3.7790088259573185e-01 1.1407866059307932e+00 -6.5311914036041629e-01 1.1407866059307932e+00 9.7716016496794000e-01 9.3150031523191290e-01 -6.5311914036041629e-01 9.3150031523191290e-01 9.6612141606944174e-02  -8.2472892538112708e-01 7.4315566948811806e-01 -7.6255578776994648e-01 7.4315566948811806e-01 1.6035955652284968e+00 8.1120636143659541e-01 -7.6255578776994648e-01 8.1120636143659552e-01 -9.2619195996870712e-03  -1.0094270738052076e+00 2.7192535971398740e-01 -8.6314451397626946e-01 2.7192535971398746e-01 1.5278215801888633e+00 5.2606604056573714e-01 -8.6314451397626946e-01 5.2606604056573691e-01 1.5150276780522468e-01  -8.7274392124624334e-01 -2.8528314867168464e-01 -1.0707904460923861e+00 -2.8528314867168453e-01 1.4234727631796122e+00 2.5259664334411536e-01 -1.0707904460923861e+00 2.5259664334411525e-01 1.4138227584016042e-01  -5.3118729239801676e-01 -1.0442361415294279e+00 -8.9782682632214517e-01 -1.0442361415294279e+00 1.2922309649694292e+00 -3.2129771453906060e-02 -8.9782682632214517e-01 -3.2129771453906060e-02 -9.3578802147991511e-02  -1.3473802709634211e-01 -1.2085962429715771e+00 -1.1092885022169809e+00 -1.2085962429715769e+00 3.8496741900245407e-01 3.0152979895255594e-01 -1.1092885022169809e+00 3.0152979895255583e-01 3.5354932921408788e-01  7.8240981023449085e-01 -3.7793867062741532e-01 -1.2345962116897276e+00 -3.7793867062741487e-01 -1.0347113236552168e+00 -2.2474044329616520e-02 -1.2345962116897273e+00 -2.2474044329616506e-02 5.6413326720303658e-01  1.9742993472435608e+00 -4.7401012899979150e-01 -1.0724549295409920e+00 -4.7401012899979167e-01 -1.3512164140542084e+00 -6.6532576401843813e-01 -1.0724549295409922e+00 -6.6532576401843813e-01 3.7169528537424790e-01  3.4482772004387403e+00 -5.9040003815860809e-01 -1.0957867410710673e+00 -5.9040003815860820e-01 -2.1206736268024766e+00 -1.3850448535235098e+00 -1.0957867410710673e+00 -1.3850448535235098e+00 1.5695074151525621e+00  3.4564312858435975e+00 -3.6205453376352914e-01 -1.0242060955021226e+00 -3.6205453376352925e-01 -1.1037494087784769e+00 -2.3202762655330860e+00 -1.0242060955021226e+00 -2.3202762655330860e+00 8.0390285487132707e-01  2.5910315101576304e+00 -4.9691245955946935e-02 -5.4766394440328769e-01 -4.9691245955946914e-02 -8.5558368801960594e-01 -1.7699828725432043e+00 -5.4766394440328769e-01 -1.7699828725432045e+00 -1.0066471448054462e-01  2.1731941539001691e+00 1.0978858047192837e-01 -3.6188395556259484e-01 1.0978858047192840e-01 -1.3383202751911134e+00 -1.1091940671433238e+00 -3.6188395556259484e-01 -1.1091940671433229e+00 2.0127244714630180e-01  1.8838670210576232e+00 -3.3024291525123700e-01 -7.8135865939598281e-01 -3.3024291525123700e-01 -1.8163016424100318e+00 -7.3202286057890453e-01 -7.8135865939598281e-01 -7.3202286057890453e-01 1.2425677068221443e+00  1.4000014085607440e+00 -4.5746875808978010e-01 -6.0553657897884050e-01 -4.5746875808978010e-01 -1.7064674743426971e+00 -3.7403850767182478e-01 -6.0553657897884050e-01 -3.7403850767182473e-01 1.2162704768839658e+00  8.5939461990695876e-01 -5.2127774316592734e-01 -1.2093777125474263e-01 -5.2127774316592723e-01 -1.1930239728362522e+00 3.7251869010429300e-01 -1.2093777125474263e-01 3.7251869010429300e-01 6.3839039726104796e-01  7.1774382963470418e-01 -1.1139744747203773e+00 9.7906040097135438e-02 -1.1139744747203773e+00 -7.2532195713817627e-01 1.5033471966638703e+00 9.7906040097135452e-02 1.5033471966638703e+00 1.0290297755102149e+00  9.7575737448044386e-01 -7.6924251465269211e-01 -4.3013226311291247e-01 -7.6924251465269211e-01 -1.1035139453702261e+00 2.0337004658280664e+00 -4.3013226311291247e-01 2.0337004658280664e+00 1.8780197414209228e+00  4.1530723355933113e-01 2.5576406690716236e-01 -5.6195547658811373e-01 2.5576406690716236e-01 -3.0064458484472256e-01 1.6841589731656113e+00 -5.6195547658811373e-01 1.6841589731656113e+00 3.4807254136965793e-01  4.1805070824888618e-01 1.1282555129974489e-01 -3.1266582424903810e-01 1.1282555129974473e-01 -2.9592585941096045e-01 1.5928561561540477e+00 -3.1266582424903810e-01 1.5928561561540477e+00 1.5874388521916627e-01  5.4508332202255527e-01 -1.4512927793355496e-01 5.0783954005101467e-02 -1.4512927793355496e-01 -4.3764843218142518e-01 1.5309127239770937e+00 5.0783954005101467e-02 1.5309127239770937e+00 1.5384299123476280e-01  6.4021940338584504e-01 -3.3604357194458490e-01 3.3890835070024422e-01 -3.3604357194458490e-01 -3.2081136306040053e-01 1.3736353203885701e+00 3.3890835070024422e-01 1.3736353203885701e+00 1.5906017322000093e-03  4.9967271147293346e-01 -2.6366415192207709e-01 6.3908018116757770e-01 -2.6366415192207709e-01 -2.2921248408445924e-01 1.3490477406552883e+00 6.3908018116757770e-01 1.3490477406552883e+00 -2.5913679047618602e-02  8.0511024140663834e-01 -1.7257869762062344e-01 4.2964265415091096e-01 -1.7257869762062339e-01 4.4302251332310402e-02 1.0341540021775018e+00 4.2964265415091085e-01 1.0341540021775018e+00 -7.5094693392402889e-01  9.2358939419013342e-01 -3.5307160494371281e-01 6.4923647276966800e-01 -3.5307160494371287e-01 1.4044796362722609e-01 5.9276140630541951e-01 6.4923647276966867e-01 5.9276140630541951e-01 -8.7631382040879746e-01  4.0369385631601640e-01 -5.9090821236530799e-01 1.0461542243690281e+00 -5.9090821236530799e-01 4.1409069155756228e-01 6.5180905341307782e-01 1.0461542243690281e+00 6.5180905341307782e-01 -3.9259240061329431e-01  3.7117871506391098e-01 -6.4186667579966827e-01 9.4223399909140826e-01 -6.4186667579966827e-01 7.6013875604018455e-01 2.1531829101907848e-01 9.4223399909140804e-01 2.1531829101907848e-01 -7.7191390945930149e-01  1.7095322861586520e-01 -6.3425032577811180e-01 9.9323322438045669e-01 -6.3425032577811169e-01 1.0313704890314941e+00 -2.6992781436890653e-03 9.9323322438045669e-01 -2.6992781436890653e-03 -8.2672414819204809e-01  -1.6926726876571602e-01 -3.4958205220352279e-01 9.4233129454462550e-01 -3.4958205220352279e-01 1.1429425575348653e+00 -2.0466792630426578e-01 9.4233129454462550e-01 -2.0466792630426578e-01 -6.2430831893351357e-01  -2.7585506924155179e-01 6.8201174815102045e-02 1.0174128508395210e+00 6.8201174815102045e-02 8.9587646085455963e-01 -3.3307542171442167e-01 1.0174128508395210e+00 -3.3307542171442167e-01 -2.7013417267350376e-01  9.2191413373420877e-02 1.0486306333785257e-01 6.6690071089483538e-01 1.0486306333785260e-01 9.4722328284058976e-01 -4.5296064416375104e-01 6.6690071089483527e-01 -4.5296064416375104e-01 -8.3034070517060543e-01  2.6576145485648656e-01 -4.8402034828181800e-01 -2.1764845539415145e-01 -4.8402034828181800e-01 1.1130874497369458e+00 -7.9064002262574840e-01 -2.1764845539415142e-01 -7.9064002262574840e-01 -1.1649587886970394e+00  -1.7503813392305925e-01 4.0880442697224384e-01 4.9092783019637565e-01 4.0880442697224384e-01 7.4119647757949925e-01 -6.4313830380135517e-01 4.9092783019637565e-01 -6.4313830380135517e-01 -3.1657685145929609e-01  1.0182308709396064e+00 -4.9493985840941446e-01 6.9429934026148543e-01 -4.9493985840941418e-01 -1.1094603438802597e+00 3.4382682225408367e-01 6.9429934026148543e-01 3.4382682225408351e-01 6.1313717694831338e-01  1.1630742027422989e+00 -5.0213422643395145e-01 7.0819501879728453e-01 -5.0213422643395145e-01 -1.2754431618879947e+00 -6.6091531498920818e-03 7.0819501879728453e-01 -6.6091531498921009e-03 6.1195718132981658e-01  1.5487102771432060e+00 -1.0253019728085251e+00 8.3020411801955063e-01 -1.0253019728085255e+00 -1.5963407029599443e+00 -1.6854282730739228e-01 8.3020411801955063e-01 -1.6854282730739223e-01 1.1671175200546213e+00  2.1413209132148863e+00 -9.3805744446259764e-01 9.5492455346463168e-01 -9.3805744446259809e-01 -1.9958509502813617e+00 1.9193409882059087e-01 9.5492455346463190e-01 1.9193409882059087e-01 1.6235443989940355e+00  2.0086486805751766e+00 -8.5670360618719110e-01 8.8437792247191871e-01 -8.5670360618719121e-01 -1.9345138874231231e+00 3.6443221366027201e-01 8.8437792247191871e-01 3.6443221366027201e-01 1.5761723330542050e+00  1.7415121315144839e+00 -5.8184278512480436e-01 6.6279151117653157e-01 -5.8184278512480436e-01 -1.9273843012909735e+00 3.0827003162619271e-01 6.6279151117653157e-01 3.0827003162619271e-01 1.4819597662918911e+00  1.2525236552078207e+00 -5.2403550335580529e-01 4.5661218847396068e-01 -5.2403550335580529e-01 -1.7296053139782870e+00 1.1016301003920452e-01 4.5661218847396068e-01 1.1016301003920452e-01 1.4054274234757598e+00  8.0433970872711036e-01 -4.4449540213255057e-01 8.1821900475650278e-01 -4.4449540213255057e-01 -1.3429791724445606e+00 -1.7920227091716448e-01 8.1821900475650278e-01 -1.7920227091716448e-01 1.0789374605108411e+00  6.6886283710899441e-01 -6.2622388822777125e-02 1.0625138681598485e+00 -6.2622388822777125e-02 -2.8248085535635636e-01 2.2458792314379139e-02 1.0625138681598485e+00 2.2458792314379111e-02 -2.1590524933210886e-01  2.2755695527575961e+00 8.3401431043062624e-01 -5.8041392159070460e-01 8.3401431043062646e-01 -1.5447993249200376e+00 -8.6772962287622468e-01 -5.8041392159070482e-01 -8.6772962287622468e-01 4.3768208151982951e-01  1.9831984001993430e+00 2.0870472054882327e+00 -1.0875588298622944e-02 2.0870472054882327e+00 -8.1876277749909232e-01 -1.0112342991645809e+00 -1.0875588298622951e-02 -1.0112342991645809e+00 5.1724479001633628e-01  7.1511254551952075e-01 2.2232790364474635e+00 1.2077835436080621e-01 2.2232790364474635e+00 -6.7648368713949622e-02 -9.3580475598139079e-01 1.2077835436080619e-01 -9.3580475598139123e-01 6.7985809273378672e-01  -6.3122133415768000e-01 2.0760792256922849e+00 4.6927898058757889e-01 2.0760792256922849e+00 1.1445720158880648e+00 -8.3861863901051614e-01 4.6927898058757889e-01 -8.3861863901051614e-01 8.6046776060829788e-01  -1.3161720402676558e+00 1.2133148007182091e+00 5.0441359974162037e-01 1.2133148007182091e+00 1.3466148584458504e+00 -8.2639887804198742e-01 5.0441359974162037e-01 -8.2639887804198742e-01 9.8323860854378131e-01  -1.3237305031930426e+00 4.0721698600638934e-01 7.4915699393047952e-01 4.0721698600638934e-01 1.6106468988187510e+00 -5.2960389466052171e-01 7.4915699393047941e-01 -5.2960389466052171e-01 4.5424967866864752e-01  -1.0211792637360311e+00 -3.8809693879818186e-01 8.5672690657976613e-01 -3.8809693879818186e-01 1.2504169862770611e+00 -3.4729378097666458e-01 8.5672690657976613e-01 -3.4729378097666458e-01 2.6132113311233340e-01  -1.0095160154387779e+00 -5.3975098605018312e-01 5.0800234182556481e-01 -5.3975098605018312e-01 8.6972115404674577e-01 -3.6127997508088799e-01 5.080023418