<?xml version="1.0"?>
<VTKFile type="UnstructuredGrid"  version="0.1"  >
<UnstructuredGrid>
<Piece  NumberOfPoints="1268" NumberOfCells="4847">
<Points>
<DataArray  type="Float64"  NumberOfComponents="3"  format="ascii">1.994716987487452 0.01317707561264319 -1.202466945460223e-11  1.374072606111497 -0.08614134488653273 -5.388997575085332  -1.285941478930618 0.1916557790035214 -5.691288663606836  -1.59032616235459 -0.4515196446136259 1.626303258728257e-17  0.4950030257755884 2.521650519233041 -5.495391852657774  -0.4107718940653654 -2.429115409112172 -5.58531208084276  -0.9314707163843408 -3.006923447963563 4.87890977618477e-17  1.161824811771535 2.948440156756841 -3.391384395534658e-14  2.146749234505421 0.002696741478414759 -0.5615078450779066  2.330988047973839 -0.000873250973709995 -1.113141311680313  2.540713632977715 -0.1384292375506191 -1.637427654548237  2.645241452520652 -0.2872312815961211 -2.18637082393926  2.504842461151312 -0.2752146673621067 -2.746850782899552  2.287876352721185 -0.2088259978706829 -3.283011632728322  2.137771360922677 -0.2093380261300688 -3.844996501809416  1.970142554575494 -0.2193701374385486 -4.401638277082749  1.701580801829277 -0.1696632515169769 -4.915066532844666  1.398049690886424 0.4419377546899956 -5.387643705321969  1.183972204621215 0.9208338616597355 -5.413149504812257  0.7621482426349403 1.234356207118232 -5.461782499987256  0.2539805730796886 1.370727420898931 -5.519751404145364  -0.2689415860383004 1.319053689498898 -5.578906487138381  -0.7357170559581984 1.076180709179107 -5.631191713357971  -1.086003096318238 0.6812820615514149 -5.669884670156524  -1.65706961757681 -0.5275128747266272 -0.6240725009925172  -1.829082870387909 -0.8347372240299333 -1.153553189134448  -2.030635262011336 -1.097965926806997 -1.693320688638939  -2.148557703924963 -0.9683820133813712 -2.295450526931833  -2.119047321408695 -0.7521727279271558 -2.890676896601294  -1.972500555455803 -0.7106310836492745 -3.509380855831461  -1.885028119342598 -0.4902108162504233 -4.093718100793141  -1.832050776792238 -0.1313823297003599 -4.617858136599065  -1.636180550340053 0.1151199882480144 -5.165527944859976  -1.540434086810702 0.1014447694855235 -7.644826989049428e-17  -1.339902801239663 0.6191128040412099 2.218327606354497e-17  -0.9949589579071262 1.053322092476122 2.12059320661159e-17  -0.5243975458638882 1.346285776146202 7.754217898549941e-16  0.01399251627036286 1.481823287560149 3.252316763596149e-17  0.5696211504784076 1.47677978548424 -7.207855520904863e-17  1.105448032340458 1.331487337928338 1.951563910473908e-16  1.561367740818086 1.018090979386763 -2.179459114756194e-16  1.860006992193919 0.551530302300456 1.369433074745588e-16  -0.152869286718376 2.506583809965366 -5.568804938302105  -0.7781210310064858 2.335338381675429 -5.639249366957451  -1.340550096787874 2.011723800088065 -5.702178028336585  -1.803922993566052 1.555830170950866 -5.753534898075912  -2.144678763029901 1.000979069722826 -5.790734833138769  -2.346903237737564 0.3811866585909049 -5.812061421922149  -2.406990243842066 -0.2684488461825228 -5.817196438260218  -2.318433628103212 -0.9144163570965761 -5.805488779558074  -2.059391262210163 -1.511004864267824 -5.774580158166454  -1.615755841275718 -1.983465489741105 -5.72306417450185  -1.043145925381342 -2.287058241276404 -5.657361969815248  -0.6986882361605687 -2.420627649803484 -5.024556445072709  -0.8272574030199392 -2.685291244074475 -4.476216325063944  -0.8113210073272845 -3.118860027310894 -4.01596683617901  -0.7618552434953355 -3.481598098596065 -3.504026669625047  -0.7509882165597778 -3.609083979854663 -2.886473298216772  -0.7986167670519319 -3.732483084086931 -2.268445488219849  -0.8276969497603353 -3.810997815301134 -1.64593496945388  -0.7425506523451623 -3.557242155569485 -1.078322423839125  -0.7147449622328144 -3.21189056194362 -0.5511080601316157  -1.482234509376526 -2.778582553401298 -5.854479658363816e-16  -1.970737176894139 -2.437284655419533 2.764697292186607e-16  -2.362818572203899 -1.988727212877528 2.439101268600111e-16  -2.642390785384022 -1.462244173776716 5.051059276813266e-16  -2.812149102113852 -0.89052423419162 2.276851973687203e-16  -2.877946727920729 -0.2976446157883296 -1.219909928720168e-16  -2.842947107925845 0.2978601752284433 4.065446096494693e-17  -2.70313036896374 0.8776122116387211 -5.041496169361013e-16  -2.452324348076021 1.418519584933707 4.379274460317988e-16  -2.098265626135573 1.898294456130726 1.951060033519619e-16  -1.658391347368763 2.301023318502569 -1.789574489620802e-16  -1.154148079923361 2.619757341302747 -2.081203863085907e-15  -0.6042202207747882 2.851073703499478 -3.577841418755692e-16  -0.02416138323675775 2.990516581461941 4.065982498622179e-16  0.5710641261211448 3.028216945076794 -1.46882551317968e-16  0.6414151130412097 2.696325287154043 -4.983333021490838  0.771852374565919 2.778456367279237 -4.445188759107248  0.8805845204306011 2.73078881179073 -3.897720120696569  0.9481597620953167 2.69798349057175 -3.343104559074628  0.9815370707090804 2.778214865778854 -2.789250505759619  1.013475345489448 2.861817704396183 -2.235671116027784  1.055849759321274 2.898356228459238 -1.677594140621302  1.093646323460014 2.92793989028903 -1.118725590781912  1.124098871622056 2.957526991478201 -0.5594169689370629  0.2477015793419729 -2.415655802610486 -5.510682951113449  0.8844491790088972 -2.245867158009595 -5.438931443942415  1.464891069119211 -1.932330028996181 -5.373934600293736  1.955087092649627 -1.489613175355717 -5.319502697776375  2.318355026965356 -0.937054784961175 -5.279744576064058  2.524994411863564 -0.307899182343253 -5.257941630215678  2.574632820450045 0.3531084349228537 -5.254020561031156  2.465743861849647 1.006614152640354 -5.268052816559671  2.183897076015212 1.604484044160622 -5.301550147358176  1.722560240631265 2.07491696755195 -5.35506775502591  1.13806318635062 2.378906583716481 -5.422118662603529  1.742182153284979 2.73179858498085 5.854691697147836e-16  2.262480931380501 2.395264875892136 -2.601681534737615e-16  2.698000706832733 1.954727370266727 -3.903113804560263e-16  3.021530388777258 1.426473918441798 1.707421408502106e-16  3.223363606607101 0.8405687193648443 -2.844806418042028e-16  3.305434793487241 0.2261994274297442 -4.472186606099012e-16  3.269241566985055 -0.3926051469820059 3.171555149681837e-16  3.113478077610213 -0.9924495549400153 3.510830505762065e-16  2.840400132149515 -1.548806515270482 -1.707368614952523e-16  2.466120284856568 -2.042983582774378 9.732831365154574e-17  2.008125599488538 -2.460814027017948 -3.577575055983979e-16  1.482521285196868 -2.789563899556613 -4.886146623064541e-17  0.9057866143556688 -3.01678997208197 -2.439392613813594e-16  0.2964958724913082 -3.130681163554852 3.414395345104792e-16  -0.32338307292875 -3.126978161260848 2.926910878106614e-16  -1.29067345658392 -0.3506098753383553 -5.690421630247788  -1.068897680254163 -0.8451623229646739 -5.663999894259847  -0.6782440885714781 -1.219621806060448 -5.6187489875115  -0.168757542531344 -1.390394566692369 -5.560546895724229  0.3611301401510615 -1.294122251639114 -5.500717901478111  0.8191548613516448 -1.005201308695582 -5.449538098373106  1.16817203978903 -0.5892762115769014 -5.411042670828763  1.960898302630318 -0.551652302616722 -8.131516293641286e-17  1.751009740180289 -1.077278642631261 7.445724005953314e-16  1.394016468000002 -1.516729095803803 1.136104663605282e-15  0.9227767039454898 -1.830301465573364 3.434443593283319e-16  0.3780412068884804 -1.984007749105097 8.617772484356591e-16  -0.1885780664025548 -1.977994130030172 2.357202029695971e-16  -0.7327557451871473 -1.821291124380143 1.942410916395698e-17  -1.191068596016128 -1.491774666596192 2.975009434367945e-16  -1.480405544894888 -1.006855825633415 6.954512630084263e-16  -1.812414118534285 0.2561131097252937 -2.664867827914479  2.421751940242729 0.6298287624476981 -1.933377861698098  0.7556418177061754 1.42269463362527 -4.617654324361507  0.003134751711410342 1.574821943356493 -0.9318675177876981  1.015098001669947 1.51699057942374 -0.9441494884276413  0.6193243625380082 1.764115149411371 -1.862230514405671  -0.4757031201037318 1.549728101933577 -1.958273018773558  0.1126459993007786 1.698838152590054 -2.957602797129454  -0.3405660022430232 1.569615851499001 -4.678135257405353  1.818199099779932 0.7365610114574719 -3.763003518505052  -0.9541815370276669 1.23451227632913 -2.875526912859068  -1.269464226480212 1.016489154450913 -4.672047638709048  1.301562892980348 1.557566760682666 -2.802482532053872  -0.7813756340336595 1.414221906310649 -3.725761628685261  -1.58370798409762 0.5643609111372817 -3.581008460136619  -0.988817348255397 1.158392548936659 -1.014254585170146  -1.607700527190565 0.2800106654898483 -1.030081240453645  -1.388203055800784 0.7951310659851955 -1.943712885648593  0.8261955720421881 1.570157055202129 -3.620947225245673  1.681455131778566 1.410849015379531 -1.876189895849114  1.878739160554727 0.943024132521903 -0.9866418074548234  2.103426639579445 1.000735947836943 -2.593434794762663  1.62623803052506 0.6468498306152269 -4.727220189271843  -1.882943490361709 -0.1546739965127431 -1.761716647663214  0.05868355051519467 1.656538949473053 -3.863342338366238  2.465845305360337 0.2632819454094029 -2.663569745038379  1.994842599423799 0.5019775153043848 -0.4779055074204815  2.1671824130763 0.4980244878585698 -1.027636182799239  1.710213566460811 0.9718796190568162 -0.4957578884333736  1.845584590132108 0.2253887364997403 -4.583879812097906  1.579035044615276 0.2924902970866011 -5.101748935835201  1.409777182251665 0.7868327264427526 -5.07202467441607  -1.039178737375989 1.089168173550246 -5.170746090958521  -1.377687418630729 0.6683636420802941 -5.233117919580046  -1.641402128985454 0.4875654733502939 -4.648722230221863  -1.765467255797776 -0.2695484060062747 -1.079683539430899  -1.617858736076732 -0.08318463488274264 -0.5123563299218489  -1.474019211051276 0.4496529111656123 -0.5150171376928306  2.417677350191343 0.3274903893149403 -1.506992657970159 
[...]
<PointData  Tensors="stress"> 
<DataArray  type="Float64"  Name="stress"  NumberOfComponents="9" format="ascii">1.1364610040356145e-01 -1.9150944889460494e-01 -4.4073777792950306e+00 -1.9150944889460494e-01 1.2926889541490441e+00 -2.6226983847251911e-01 -4.4073777792950306e+00 -2.6226983847251911e-01 4.2748578768511845e+00  -1.7610372438878368e+00 7.5601444479229585e-01 2.5043140929604526e+00 7.5601444479229585e-01 7.4149872477084804e+00 -1.4582550552853031e+00 2.5043140929604526e+00 -1.4582550552853026e+00 1.6085393048377796e+00  -1.1022908258946513e+00 1.2012252245361283e+00 -2.9273667970183843e+00 1.2012252245361283e+00 7.3032888951312236e+00 1.5613001411949829e+00 -2.9273667970183843e+00 1.5613001411949827e+00 1.3109590925033332e+00  -1.6304509768419606e-01 -6.6177889486577446e-01 4.0632145698052291e+00 -6.6177889486577446e-01 1.1901207323535632e+00 -8.3617574941717043e-01 4.0632145698052291e+00 -8.3617574941717043e-01 4.6678311775518289e+00  1.7478783793060115e+00 -1.4273892394439316e-01 9.2953707130572261e-01 -1.4273892394439311e-01 -1.3084563849529087e+00 7.7460747487531023e-01 9.2953707130572261e-01 7.7460747487531023e-01 4.9043912816646568e-01  3.2404545027703877e+00 -1.0216089608306796e-01 -9.0701197952534629e-01 -1.0216089608306800e-01 -2.0727170016219483e+00 -5.9365783873414146e-01 -9.0701197952534629e-01 -5.9365783873414146e-01 6.8441602398005663e-01  4.7624523690345533e-01 3.8179779861977475e-01 -1.0479561209671484e+00 3.8179779861977475e-01 -3.7353310718002374e-02 2.6351549450732956e+00 -1.0479561209671484e+00 2.6351549450732956e+00 1.1829605188097150e+00  1.9761703581443987e-01 5.1931731723064378e-01 9.7260579030949368e-01 5.1931731723064378e-01 9.3037967818043088e-01 -1.0714479151574963e+00 9.7260579030949368e-01 -1.0714479151574963e+00 -5.8459609990545869e-01  -2.3553612799802508e+00 -7.0587883318777522e-01 -2.3816776871781569e+00 -7.0587883318777522e-01 4.0002682149130813e+00 -1.2874080385097610e+00 -2.3816776871781569e+00 -1.2874080385097610e+00 3.7237189429925222e+00  -2.6181711501440943e+00 -8.9247453962654777e-01 -2.0142059429151522e+00 -8.9247453962654777e-01 5.4279515664249010e+00 -1.1043878143807522e+00 -2.0142059429151522e+00 -1.1043878143807522e+00 3.4562441554352530e+00  -3.0275707708437225e+00 -1.6740018615767371e-01 -1.7666883414749490e+00 -1.6740018615767369e-01 6.0703036152964645e+00 -6.3432467890545330e-01 -1.7666883414749490e+00 -6.3432467890545319e-01 3.9077736819310975e+00  -3.3570592029090736e+00 4.5994038144727217e-01 4.4551112668734148e-02 4.5994038144727217e-01 5.9797420412314208e+00 -1.0165912890173274e+00 4.4551112668734148e-02 -1.0165912890173274e+00 4.7221628022938997e+00  -2.6284510285885463e+00 -8.6873428174773906e-02 2.0946170240495454e+00 -8.6873428174773906e-02 7.0694558575608468e+00 -1.2989141535024571e+00 2.0946170240495459e+00 -1.2989141535024571e+00 3.2007150413412839e+00  -2.4676298301436428e+00 -8.3496331158930270e-01 1.8464034753692109e+00 -8.3496331158930270e-01 7.8393934905717213e+00 -4.5295551369373860e-01 1.8464034753692109e+00 -4.5295551369373860e-01 2.0996311880037166e+00  -2.6700488948383709e+00 -3.1803999876100952e-01 1.6275274849835468e+00 -3.1803999876100952e-01 8.0887982621519576e+00 -2.8563161405656351e-01 1.6275274849835470e+00 -2.8563161405656351e-01 2.2024908537797021e+00  -2.3726504431817133e+00 5.7800722165969216e-02 2.1524809181853630e+00 5.7800722165969216e-02 7.6930413601165499e+00 -7.6918480196255024e-01 2.1524809181853626e+00 -7.6918480196255012e-01 2.1148142144974997e+00  -1.6012406789480040e+00 5.1914459367373333e-01 2.8474337319968894e+00 5.1914459367373333e-01 7.5139716828271252e+00 -1.0076286133915067e+00 2.8474337319968894e+00 -1.0076286133915067e+00 1.7292965423240969e+00  -1.2603976007666358e+00 -2.3117348479482862e+00 3.0659956308717438e+00 -2.3117348479482862e+00 6.2660547903660015e+00 -3.1064612432288458e-01 3.0659956308717438e+00 -3.1064612432288458e-01 2.2259121094470382e+00  1.5099039703923314e+00 -4.6050229497355391e+00 2.4328477234393069e+00 -4.6050229497355391e+00 3.2601431605488593e+00 9.0370307542808215e-01 2.4328477234393069e+00 9.0370307542808204e-01 2.4931481623510270e+00  4.7799873860371571e+00 -3.5705132656869152e+00 1.8498339696513930e+00 -3.5705132656869152e+00 -6.7915751783906908e-01 1.8285200779869717e+00 1.8498339696513926e+00 1.8285200779869717e+00 2.7913629327932630e+00  6.2107505868012414e+00 -8.0184078320144725e-01 1.1559922876585971e+00 -8.0184078320144725e-01 -2.0720216640549181e+00 2.7479477002455943e+00 1.1559922876585971e+00 2.7479477002455943e+00 2.9179217680104808e+00  5.7453083713606325e+00 2.0107799742065220e+00 -1.2451039884852770e-01 2.0107799742065215e+00 -1.2521317698113121e+00 3.3416341590635312e+00 -1.2451039884852760e-01 3.3416341590635312e+00 2.8031324876677703e+00  3.2763485604040139e+00 3.8296278622437310e+00 -1.1199246643013427e+00 3.8296278622437310e+00 1.5123696614274829e+00 3.1869132261314990e+00 -1.1199246643013427e+00 3.1869132261314990e+00 2.1695805035658164e+00  5.0059935118559240e-01 3.4871964294576232e+00 -2.1228093830782697e+00 3.4871964294576232e+00 4.7513098024502893e+00 2.6348093091839058e+00 -2.1228093830782693e+00 2.6348093091839058e+00 1.9197960531455953e+00  -2.6582209610197478e+00 -1.2058000952230749e-01 2.1048791641328912e+00 -1.2058000952230756e-01 3.4234881358663127e+00 2.3313776612568540e-01 2.1048791641328912e+00 2.3313776612568540e-01 3.8885564432798203e+00  -2.5893009335808119e+00 -4.9434422976403908e-01 1.9742402243529322e+00 -4.9434422976403897e-01 5.1006186957656743e+00 1.2938902418318274e-01 1.9742402243529322e+00 1.2938902418318274e-01 2.8251850970025867e+00  -2.9100063071467930e+00 -6.2110036711558436e-01 1.7197931462699745e+00 -6.2110036711558436e-01 5.5196813377048146e+00 5.1098717835267071e-01 1.7197931462699745e+00 5.1098717835267071e-01 3.7626057048218198e+00  -3.3708393955033347e+00 -3.8361952615148137e-01 3.4799920839711540e-01 -3.8361952615148148e-01 6.1984363568873881e+00 9.3607750855982796e-01 3.4799920839711546e-01 9.3607750855982808e-01 4.2640949450502568e+00  -3.2196654049284748e+00 -7.7605765442061827e-03 -8.2779376897815882e-01 -7.7605765442063180e-03 6.8153677582896020e+00 1.5803895949881257e+00 -8.2779376897815882e-01 1.5803895949881257e+00 3.8465272112757534e+00  -2.8696576078563321e+00 -5.0983972076490325e-01 -1.1377627776685943e+00 -5.0983972076490325e-01 7.4479368587307757e+00 1.8076553209991373e+00 -1.1377627776685946e+00 1.8076553209991373e+00 2.8390289839872747e+00  -2.9673665416341448e+00 -3.1298369575710022e-01 -9.1606344105037796e-01 -3.1298369575710033e-01 7.4021960717336368e+00 2.0462102615010456e+00 -9.1606344105037785e-01 2.0462102615010456e+00 3.0509618779930667e+00  -3.0261138868564932e+00 6.8301302572235512e-01 -1.2070534982941374e+00 6.8301302572235512e-01 7.1418270208423085e+00 1.7733029231222235e+00 -1.2070534982941374e+00 1.7733029231222235e+00 3.5909732893381521e+00  -2.1797114193424996e+00 1.0246535477809049e+00 -2.3735689518627252e+00 1.0246535477809049e+00 7.0255894984597917e+00 1.8708369834043677e+00 -2.3735689518627252e+00 1.8708369834043677e+00 2.9186337609272468e+00  -7.1785110530278629e-01 5.5279742521810407e-02 3.8687947839929691e+00 5.5279742521810407e-02 1.4511987448231465e+00 -1.2159931481659172e+00 3.8687947839929682e+00 -1.2159931481659172e+00 5.2722726031267424e+00  -3.5872708328829150e-01 6.2046240290290444e-01 3.2575166827395465e+00 6.2046240290290444e-01 1.0350317267066866e+00 -2.3285223309476031e+00 3.2575166827395465e+00 -2.3285223309476031e+00 5.1809763922616510e+00  5.0408786162497041e-02 1.2362350850052606e+00 2.6451927335413159e+00 1.2362350850052606e+00 5.3517390967410283e-01 -2.9069359396775032e+00 2.6451927335413155e+00 -2.9069359396775032e+00 5.5386700004465288e+00  8.8403613965493988e-01 8.8196463927718083e-01 1.4582534954941138e+00 8.8196463927718083e-01 -8.7290811538030103e-02 -3.6225833097015747e+00 1.4582534954941138e+00 -3.6225833097015747e+00 5.4240849214426534e+00  1.3106701999120192e+00 6.3285942925796801e-01 8.2798609779345955e-01 6.3285942925796801e-01 -5.9331978952309239e-01 -3.8688255780991967e+00 8.2798609779345955e-01 -3.8688255780991967e+00 5.8225963442166080e+00  1.4367738258002680e+00 2.3576231364230975e-02 -6.5939214933623802e-01 2.3576231364230975e-02 -5.8097727915257824e-01 -3.9927029206393465e+00 -6.5939214933623802e-01 -3.9927029206393474e+00 5.9339118265407187e+00  1.4091009570487263e+00 -4.3743918619988154e-01 -1.5059728274598376e+00 -4.3743918619988154e-01 -5.4736499582573472e-01 -3.8139839331569494e+00 -1.5059728274598376e+00 -3.8139839331569498e+00 5.1681731004422904e+00  9.2806820938989365e-01 -1.0018360354754683e+00 -3.3851008847122426e+00 -1.0018360354754683e+00 3.9866142406592464e-01 -2.6591988630316719e+00 -3.3851008847122426e+00 -2.6591988630316719e+00 5.4831369366781590e+00  1.9385099559911009e-02 -8.3031819664182593e-01 -4.2211806349323293e+00 -8.3031819664182593e-01 9.3969250171702634e-01 -1.2902923805824822e+00 -4.2211806349323293e+00 -1.2902923805824822e+00 6.0728111470015822e+00  1.4845369851767487e+00 6.1840711856989428e-01 6.2168045272375827e-01 6.1840711856989417e-01 -1.0909660147144244e+00 1.2233524226880788e+00 6.2168045272375805e-01 1.2233524226880788e+00 5.8015920628812900e-01  1.3643237845125129e+00 1.2238769379397605e+00 3.8885454841629058e-01 1.2238769379397605e+00 -8.6500915020151259e-01 1.3203762423167149e+00 3.8885454841629064e-01 1.3203762423167149e+00 6.5084939598154212e-01  3.4269171476298427e-01 1.3917127801062148e+00 -2.9214630327861462e-02 1.3917127801062146e+00 -1.6362293378038636e-01 1.3773326114035433e+00 -2.9214630327861469e-02 1.3773326114035433e+00 7.4482725429940100e-01  -2.6778586169043550e-01 1.5061123627962973e+00 -7.4936035049561789e-01 1.5061123627962973e+00 1.1467283763092342e+00 1.2336709324113018e+00 -7.4936035049561789e-01 1.2336709324113018e+00 2.8466639031287222e-01  -8.8391971535772851e-01 9.7176923304105400e-01 -1.0036058417101563e+00 9.7176923304105389e-01 1.9082436239700866e+00 1.0933671884655383e+00 -1.0036058417101563e+00 1.0933671884655383e+00 2.0082264130292610e-01  -1.2192523350410407e+00 3.1527308436684920e-01 -1.1914269416072469e+00 3.1527308436684898e-01 1.9863285751541599e+00 7.7120727905740982e-01 -1.1914269416072469e+00 7.7120727905740982e-01 4.1371008000790360e-01  -1.0532052569129620e+00 -3.8948846438777601e-01 -1.4680283456091177e+00 -3.8948846438777601e-01 1.9291736273445810e+00 4.6508283524739985e-01 -1.4680283456091177e+00 4.6508283524739985e-01 3.9925342279658449e-01  -5.7228999469192210e-01 -1.3050811661042760e+00 -1.2587489461586827e+00 -1.3050811661042758e+00 1.5696189854497880e+00 2.8024772593582492e-02 -1.2587489461586829e+00 2.8024772593582541e-02 8.4276902473444493e-02  1.9496048529623464e-01 -1.6305234103677493e+00 -1.4290633711927991e+00 -1.6305234103677488e+00 3.6388038877251833e-01 2.5587090811404717e-01 -1.4290633711927989e+00 2.5587090811404717e-01 4.9068577795755586e-01  9.3319020352388105e-01 -6.1617442160633040e-01 -1.4226408631425747e+00 -6.1617442160633040e-01 -1.1595680068283338e+00 -2.3007669827700605e-01 -1.4226408631425747e+00 -2.3007669827700605e-01 7.7443350827846336e-01  2.4130968423589514e+00 -8.8505547839741650e-01 -1.1817324224512673e+00 -8.8505547839741627e-01 -1.5730174705191162e+00 -7.4735726314041828e-01 -1.1817324224512673e+00 -7.4735726314041862e-01 6.4057236044175003e-01  4.2973427274465816e+00 -7.0583317812511004e-01 -1.2883296975782585e+00 -7.0583317812511015e-01 -2.2700030736242200e+00 -1.6704294444689969e+00 -1.2883296975782585e+00 -1.6704294444689969e+00 2.0636231836126377e+00  4.2805770993732093e+00 -4.5174742152570196e-01 -1.1527877315497688e+00 -4.5174742152570230e-01 -1.0603560419744118e+00 -2.6999173576000355e+00 -1.1527877315497688e+00 -2.6999173576000355e+00 1.1281426068166411e+00  3.3072849114494050e+00 -6.7407544856572590e-02 -6.9101949084700764e-01 -6.7407544856572604e-02 -8.9420213535551940e-01 -2.2101731298651432e+00 -6.9101949084700753e-01 -2.2101731298651428e+00 1.2292757318303003e-01  2.7299536284278525e+00 8.9061032356950828e-02 -4.9151702534783981e-01 8.9061032356950870e-02 -1.5754391375495718e+00 -1.4432348014285059e+00 -4.9151702534783981e-01 -1.4432348014285059e+00 4.9070320444328075e-01  2.4235658600186931e+00 -4.5841445669544623e-01 -9.3150972691802381e-01 -4.5841445669544612e-01 -2.1383728512495428e+00 -9.2499698265678632e-01 -9.3150972691802425e-01 -9.2499698265678632e-01 1.7758231885589431e+00  1.8653626994847032e+00 -5.3390287485179877e-01 -7.1740380867773779e-01 -5.3390287485179888e-01 -2.1085228397309956e+00 -4.8324847812013516e-01 -7.1740380867773779e-01 -4.8324847812013516e-01 1.7745991245863908e+00  1.1361392327479047e+00 -7.3826251009849353e-01 -1.4686966570497265e-01 -7.3826251009849353e-01 -1.5106277581037690e+00 5.7475790309372543e-01 -1.4686966570497265e-01 5.7475790309372554e-01 1.0020890744257656e+00  1.0656417459328420e+00 -1.3277036766066519e+00 1.2717264109890771e-02 -1.3277036766066519e+00 -9.2127160127590091e-01 1.9426423896230052e+00 1.2717264109890778e-02 1.9426423896230052e+00 1.6162873139348890e+00  1.3320719106189467e+00 -9.7739553555859915e-01 -3.8787661440853216e-01 -9.7739553555859915e-01 -1.2147896084355201e+00 2.5213068619390131e+00 -3.8787661440853222e-01 2.5213068619390127e+00 2.6284479428537293e+00  5.2956797041660608e-01 2.5555139928342585e-01 -5.4030570458691429e-01 2.5555139928342585e-01 -2.3064460517203869e-01 2.4890732128221820e+00 -5.4030570458691429e-01 2.4890732128221820e+00 8.2296488372598864e-01  5.4658073870624879e-01 1.0320112079991693e-01 -1.6032083955000054e-01 1.0320112079991692e-01 -3.2211957713421757e-01 2.2887883733371495e+00 -1.6032083955000057e-01 2.2887883733371495e+00 5.3570698269185846e-01  6.5379144959352531e-01 -1.7609026433744859e-01 3.4537455908981601e-01 -1.7609026433744859e-01 -4.0120051818267627e-01 2.2344335802315305e+00 3.4537455908981601e-01 2.2344335802315305e+00 5.3272672987703229e-01  7.6221357729138117e-01 -4.1270447335438748e-01 6.9124985824699281e-01 -4.1270447335438748e-01 -2.7613955102757870e-01 1.9863978635037434e+00 6.9124985824699303e-01 1.9863978635037434e+00 3.2066060001209029e-01  6.0174170624580559e-01 -3.6875823556307658e-01 1.0727770395661420e+00 -3.6875823556307658e-01 -2.0729375270311465e-01 1.8387913533307303e+00 1.0727770395661420e+00 1.8387913533307303e+00 2.5906516035564303e-01  9.6881110022248629e-01 -2.3831471326528914e-01 8.7436769238161438e-01 -2.3831471326528914e-01 6.5761022243168349e-02 1.3683924368510503e+00 8.7436769238161438e-01 1.3683924368510503e+00 -7.5193217169895821e-01  1.0599515706895521e+00 -3.6734088528716136e-01 1.1225983516988902e+00 -3.6734088528716136e-01 1.6019891484177756e-01 8.0574638869244075e-01 1.1225983516988902e+00 8.0574638869244075e-01 -8.9198551859720820e-01  5.2144815436516700e-01 -7.0654948142884422e-01 1.6102792855065557e+00 -7.0654948142884422e-01 5.5115859189851180e-01 7.5811511438200929e-01 1.6102792855065557e+00 7.5811511438200929e-01 -2.9347786953506844e-01  5.5132653017481370e-01 -7.5724310548847940e-01 1.4715383883663968e+00 -7.5724310548847940e-01 9.0959746667789709e-01 2.0460083935954027e-01 1.4715383883663968e+00 2.0460083935954029e-01 -8.3718119705594118e-01  2.9100932348434144e-01 -7.4398690690913960e-01 1.5440656618145767e+00 -7.4398690690913960e-01 1.2604065423597797e+00 -3.0226505987542045e-02 1.5440656618145763e+00 -3.0226505987542122e-02 -8.5691681636744055e-01  -1.7047408359500632e-01 -4.2188100353223568e-01 1.4300149173662597e+00 -4.2188100353223568e-01 1.4132363465411288e+00 -4.3666741219897942e-01 1.4300149173662600e+00 -4.3666741219897937e-01 -5.9698491235934981e-01  -2.9477512659827437e-01 1.0337155932532259e-01 1.4428144062742481e+00 1.0337155932532259e-01 1.1940624085993397e+00 -6.6450438273509449e-01 1.4428144062742481e+00 -6.6450438273509449e-01 -1.9012626794863566e-01  1.6002633024913282e-01 1.5312559637331441e-01 9.2401188657361055e-01 1.5312559637331441e-01 1.2655977886692023e+00 -7.9517699978031919e-01 9.2401188657361055e-01 -7.9517699978031919e-01 -9.9262272084030023e-01  3.1705885484226276e-01 -6.0253642349934644e-01 -2.6398291673804058e-01 -6.0253642349934644e-01 1.4574590347099887e+00 -1.2101337226370512e+00 -2.6398291673804053e-01 -1.2101337226370512e+00 -1.4075555108888620e+00  -1.7899714804478123e-01 5.0984776677439603e-01 7.0495086330248380e-01 5.0984776677439603e-01 9.6110726232035038e-01 -1.0618737976408474e+00 7.0495086330248391e-01 -1.0618737976408474e+00 -2.6206502525010278e-01  1.4906981502974805e+00 -6.4777428932034486e-01 8.7887668354717674e-01 -6.4777428932034453e-01 -1.4614493321422302e+00 5.0380895201965814e-01 8.7887668354717707e-01 5.0380895201965825e-01 9.5639864274620867e-01  1.5798480013982266e+00 -7.0789799055387126e-01 9.0851882228547420e-01 -7.0789799055387126e-01 -1.6395145614917399e+00 7.2036904751494359e-03 9.0851882228547420e-01 7.2036904751493986e-03 9.9685789666807767e-01  2.0532262392823268e+00 -1.2156178269389999e+00 1.0245754439704098e+00 -1.2156178269389999e+00 -1.9518552405636058e+00 -1.7579889186873399e-01 1.0245754439704098e+00 -1.7579889186873401e-01 1.7078917677671537e+00  2.8176885242694021e+00 -1.1573976466806488e+00 1.1173462288122569e+00 -1.1573976466806488e+00 -2.2878159096355071e+00 2.4959635199869409e-01 1.1173462288122569e+00 2.4959635199869409e-01 2.1774730328128515e+00  2.5841839556638853e+00 -1.0257637851073833e+00 1.0714371052890752e+00 -1.0257637851073833e+00 -2.2247739201778138e+00 4.6638819297691203e-01 1.0714371052890752e+00 4.6638819297691203e-01 2.1413020776462970e+00  2.3097930016800623e+00 -7.4740016629358819e-01 8.3100583920213722e-01 -7.4740016629358819e-01 -2.2833802715731024e+00 3.9617155948766453e-01 8.3100583920213722e-01 3.9617155948766453e-01 2.0873829472742531e+00  1.7079612042214907e+00 -6.2495079112295415e-01 5.8943935851701323e-01 -6.2495079112295415e-01 -2.1552273894747040e+00 1.6979188977795684e-01 5.8943935851701323e-01 1.6979188977795684e-01 2.0879798593691770e+00  1.1356141025099069e+00 -5.7436599940588917e-01 1.1013768462250042e+00 -5.7436599940588917e-01 -1.8414437032396802e+00 -2.0852435362131741e-01 1.1013768462250042e+00 -2.0852435362131741e-01 1.8903268303946166e+00  7.8898468014323964e-01 -2.1486919794499898e-01 1.2582329118134892e+00 -2.1486919794499898e-01 -5.4293295290333832e-01 -6.2290346845645841e-02 1.2582329118134892e+00 -6.2290346845645835e-02 -6.1226673666211963e-02  2.9093064105698279e+00 9.4013984194065559e-01 -6.9033995917804236e-01 9.4013984194065581e-01 -1.8823996487056347e+00 -1.1443192888755802e+00 -6.9033995917804247e-01 -1.1443192888755802e+00 8.5583309849099098e-01  2.5767345181962722e+00 2.3502512068776746e+00 -1.6564538737946144e-01 2.3502512068776746e+00 -1.1147713601944917e+00 -1.2606965390201632e+00 -1.6564538737946130e-01 -1.2606965390201632e+00 9.3685467186970239e-01  9.9025801731522278e-01 2.6738127510910257e+00 1.7970193221425729e-01 2.6738127510910257e+00 -8.0076479701418124e-02 -1.2309386563431934e+00 1.7970193221425737e-01 -1.2309386563431934e+00 1.1850542657488989e+00  -5.6073905983278560e-01 2.5793402672396910e+00 5.0514516862171621e-01 2.5793402672396910e+00 1.4017675455613314e+00 -1.1374905238817636e+00 5.0514516862171621e-01 -1.1374905238817636e+00 1.3320373142391537e+00  -1.5289295253724797e+00 1.5410932023804269e+00 7.0924904924757703e-01 1.5410932023804269e+00 1.7583503790579147e+00 -1.1256776325942968e+00 7.0924904924757703e-01 -1.1256776325942968e+00 1.5001831840835449e+00  -1.6734581356352864e+00 5.2920149655157100e-01 1.0723508738144163e+00 5.2920149655157100e-01 2.1715317147206763e+00 -8.0247896802855834e-01 1.0723508738144163e+00 -8.0247896802855834e-01 9.6415114845580496e-01  -1.3206866955317749e+00 -5.6041170401540097e-01 1.2659441747023370e+00 -5.6041170401540108e-01 1.7581649902013441e+00 -4.9152803354741054e-01 1.2659441747023370e+00 -4.9152803354741048e-01 6.2539590713232340e-01  -1.3294522792786547e+00 -7.9787082465404713e-01 9.2781777000401566e-01 -7.9787082465404713e-01 1.2200284632874483e+00 -4.6748537993277639e-01 9.2781777000401566e-0