<?xml version="1.0"?>
<VTKFile type="UnstructuredGrid"  version="0.1"  >
<UnstructuredGrid>
<Piece  NumberOfPoints="1268" NumberOfCells="4847">
<Points>
<DataArray  type="Float64"  NumberOfComponents="3"  format="ascii">1.994716987487452 0.01317707561264319 -1.202466945460223e-11  1.374072606111497 -0.08614134488653273 -5.388997575085332  -1.285941478930618 0.1916557790035214 -5.691288663606836  -1.59032616235459 -0.4515196446136259 1.626303258728257e-17  0.4950030257755884 2.521650519233041 -5.495391852657774  -0.4107718940653654 -2.429115409112172 -5.58531208084276  -0.9314707163843408 -3.006923447963563 4.87890977618477e-17  1.161824811771535 2.948440156756841 -3.391384395534658e-14  2.146749234505421 0.002696741478414759 -0.5615078450779066  2.330988047973839 -0.000873250973709995 -1.113141311680313  2.540713632977715 -0.1384292375506191 -1.637427654548237  2.645241452520652 -0.2872312815961211 -2.18637082393926  2.504842461151312 -0.2752146673621067 -2.746850782899552  2.287876352721185 -0.2088259978706829 -3.283011632728322  2.137771360922677 -0.2093380261300688 -3.844996501809416  1.970142554575494 -0.2193701374385486 -4.401638277082749  1.701580801829277 -0.1696632515169769 -4.915066532844666  1.398049690886424 0.4419377546899956 -5.387643705321969  1.183972204621215 0.9208338616597355 -5.413149504812257  0.7621482426349403 1.234356207118232 -5.461782499987256  0.2539805730796886 1.370727420898931 -5.519751404145364  -0.2689415860383004 1.319053689498898 -5.578906487138381  -0.7357170559581984 1.076180709179107 -5.631191713357971  -1.086003096318238 0.6812820615514149 -5.669884670156524  -1.65706961757681 -0.5275128747266272 -0.6240725009925172  -1.829082870387909 -0.8347372240299333 -1.153553189134448  -2.030635262011336 -1.097965926806997 -1.693320688638939  -2.148557703924963 -0.9683820133813712 -2.295450526931833  -2.119047321408695 -0.7521727279271558 -2.890676896601294  -1.972500555455803 -0.7106310836492745 -3.509380855831461  -1.885028119342598 -0.4902108162504233 -4.093718100793141  -1.832050776792238 -0.1313823297003599 -4.617858136599065  -1.636180550340053 0.1151199882480144 -5.165527944859976  -1.540434086810702 0.1014447694855235 -7.644826989049428e-17  -1.339902801239663 0.6191128040412099 2.218327606354497e-17  -0.9949589579071262 1.053322092476122 2.12059320661159e-17  -0.5243975458638882 1.346285776146202 7.754217898549941e-16  0.01399251627036286 1.481823287560149 3.252316763596149e-17  0.5696211504784076 1.47677978548424 -7.207855520904863e-17  1.105448032340458 1.331487337928338 1.951563910473908e-16  1.561367740818086 1.018090979386763 -2.179459114756194e-16  1.860006992193919 0.551530302300456 1.369433074745588e-16  -0.152869286718376 2.506583809965366 -5.568804938302105  -0.7781210310064858 2.335338381675429 -5.639249366957451  -1.340550096787874 2.011723800088065 -5.702178028336585  -1.803922993566052 1.555830170950866 -5.753534898075912  -2.144678763029901 1.000979069722826 -5.790734833138769  -2.346903237737564 0.3811866585909049 -5.812061421922149  -2.406990243842066 -0.2684488461825228 -5.817196438260218  -2.318433628103212 -0.9144163570965761 -5.805488779558074  -2.059391262210163 -1.511004864267824 -5.774580158166454  -1.615755841275718 -1.983465489741105 -5.72306417450185  -1.043145925381342 -2.287058241276404 -5.657361969815248  -0.6986882361605687 -2.420627649803484 -5.024556445072709  -0.8272574030199392 -2.685291244074475 -4.476216325063944  -0.8113210073272845 -3.118860027310894 -4.01596683617901  -0.7618552434953355 -3.481598098596065 -3.504026669625047  -0.7509882165597778 -3.609083979854663 -2.886473298216772  -0.7986167670519319 -3.732483084086931 -2.268445488219849  -0.8276969497603353 -3.810997815301134 -1.64593496945388  -0.7425506523451623 -3.557242155569485 -1.078322423839125  -0.7147449622328144 -3.21189056194362 -0.5511080601316157  -1.482234509376526 -2.778582553401298 -5.854479658363816e-16  -1.970737176894139 -2.437284655419533 2.764697292186607e-16  -2.362818572203899 -1.988727212877528 2.439101268600111e-16  -2.642390785384022 -1.462244173776716 5.051059276813266e-16  -2.812149102113852 -0.89052423419162 2.276851973687203e-16  -2.877946727920729 -0.2976446157883296 -1.219909928720168e-16  -2.842947107925845 0.2978601752284433 4.065446096494693e-17  -2.70313036896374 0.8776122116387211 -5.041496169361013e-16  -2.452324348076021 1.418519584933707 4.379274460317988e-16  -2.098265626135573 1.898294456130726 1.951060033519619e-16  -1.658391347368763 2.301023318502569 -1.789574489620802e-16  -1.154148079923361 2.619757341302747 -2.081203863085907e-15  -0.6042202207747882 2.851073703499478 -3.577841418755692e-16  -0.02416138323675775 2.990516581461941 4.065982498622179e-16  0.5710641261211448 3.028216945076794 -1.46882551317968e-16  0.6414151130412097 2.696325287154043 -4.983333021490838  0.771852374565919 2.778456367279237 -4.445188759107248  0.8805845204306011 2.73078881179073 -3.897720120696569  0.9481597620953167 2.69798349057175 -3.343104559074628  0.9815370707090804 2.778214865778854 -2.789250505759619  1.013475345489448 2.861817704396183 -2.235671116027784  1.055849759321274 2.898356228459238 -1.677594140621302  1.093646323460014 2.92793989028903 -1.118725590781912  1.124098871622056 2.957526991478201 -0.5594169689370629  0.2477015793419729 -2.415655802610486 -5.510682951113449  0.8844491790088972 -2.245867158009595 -5.438931443942415  1.464891069119211 -1.932330028996181 -5.373934600293736  1.955087092649627 -1.489613175355717 -5.319502697776375  2.318355026965356 -0.937054784961175 -5.279744576064058  2.524994411863564 -0.307899182343253 -5.257941630215678  2.574632820450045 0.3531084349228537 -5.254020561031156  2.465743861849647 1.006614152640354 -5.268052816559671  2.183897076015212 1.604484044160622 -5.301550147358176  1.722560240631265 2.07491696755195 -5.35506775502591  1.13806318635062 2.378906583716481 -5.422118662603529  1.742182153284979 2.73179858498085 5.854691697147836e-16  2.262480931380501 2.395264875892136 -2.601681534737615e-16  2.698000706832733 1.954727370266727 -3.903113804560263e-16  3.021530388777258 1.426473918441798 1.707421408502106e-16  3.223363606607101 0.8405687193648443 -2.844806418042028e-16  3.305434793487241 0.2261994274297442 -4.472186606099012e-16  3.269241566985055 -0.3926051469820059 3.171555149681837e-16  3.113478077610213 -0.9924495549400153 3.510830505762065e-16  2.840400132149515 -1.548806515270482 -1.707368614952523e-16  2.466120284856568 -2.042983582774378 9.732831365154574e-17  2.008125599488538 -2.460814027017948 -3.577575055983979e-16  1.482521285196868 -2.789563899556613 -4.886146623064541e-17  0.9057866143556688 -3.01678997208197 -2.439392613813594e-16  0.2964958724913082 -3.130681163554852 3.414395345104792e-16  -0.32338307292875 -3.126978161260848 2.926910878106614e-16  -1.29067345658392 -0.3506098753383553 -5.690421630247788  -1.068897680254163 -0.8451623229646739 -5.663999894259847  -0.6782440885714781 -1.219621806060448 -5.6187489875115  -0.168757542531344 -1.390394566692369 -5.560546895724229  0.3611301401510615 -1.294122251639114 -5.500717901478111  0.8191548613516448 -1.005201308695582 -5.449538098373106  1.16817203978903 -0.5892762115769014 -5.411042670828763  1.960898302630318 -0.551652302616722 -8.131516293641286e-17  1.751009740180289 -1.077278642631261 7.445724005953314e-16  1.394016468000002 -1.516729095803803 1.136104663605282e-15  0.9227767039454898 -1.830301465573364 3.434443593283319e-16  0.3780412068884804 -1.984007749105097 8.617772484356591e-16  -0.1885780664025548 -1.977994130030172 2.357202029695971e-16  -0.7327557451871473 -1.821291124380143 1.942410916395698e-17  -1.191068596016128 -1.491774666596192 2.975009434367945e-16  -1.480405544894888 -1.006855825633415 6.954512630084263e-16  -1.812414118534285 0.2561131097252937 -2.664867827914479  2.421751940242729 0.6298287624476981 -1.933377861698098  0.7556418177061754 1.42269463362527 -4.617654324361507  0.003134751711410342 1.574821943356493 -0.9318675177876981  1.015098001669947 1.51699057942374 -0.9441494884276413  0.6193243625380082 1.764115149411371 -1.862230514405671  -0.4757031201037318 1.549728101933577 -1.958273018773558  0.1126459993007786 1.698838152590054 -2.957602797129454  -0.3405660022430232 1.569615851499001 -4.678135257405353  1.818199099779932 0.7365610114574719 -3.763003518505052  -0.9541815370276669 1.23451227632913 -2.875526912859068  -1.269464226480212 1.016489154450913 -4.672047638709048  1.301562892980348 1.557566760682666 -2.802482532053872  -0.7813756340336595 1.414221906310649 -3.725761628685261  -1.58370798409762 0.5643609111372817 -3.581008460136619  -0.988817348255397 1.158392548936659 -1.014254585170146  -1.607700527190565 0.2800106654898483 -1.030081240453645  -1.388203055800784 0.7951310659851955 -1.943712885648593  0.8261955720421881 1.570157055202129 -3.620947225245673  1.681455131778566 1.410849015379531 -1.876189895849114  1.878739160554727 0.943024132521903 -0.9866418074548234  2.103426639579445 1.000735947836943 -2.593434794762663  1.62623803052506 0.6468498306152269 -4.727220189271843  -1.882943490361709 -0.1546739965127431 -1.761716647663214  0.05868355051519467 1.656538949473053 -3.863342338366238  2.465845305360337 0.2632819454094029 -2.663569745038379  1.994842599423799 0.5019775153043848 -0.4779055074204815  2.1671824130763 0.4980244878585698 -1.027636182799239  1.710213566460811 0.9718796190568162 -0.4957578884333736  1.845584590132108 0.2253887364997403 -4.583879812097906  1.579035044615276 0.2924902970866011 -5.101748935835201  1.409777182251665 0.7868327264427526 -5.07202467441607  -1.039178737375989 1.089168173550246 -5.170746090958521  -1.377687418630729 0.6683636420802941 -5.233117919580046  -1.641402128985454 0.4875654733502939 -4.648722230221863  -1.765467255797776 -0.2695484060062747 -1.079683539430899  -1.617858736076732 -0.08318463488274264 -0.5123563299218489  -1.474019211051276 0.4496529111656123 -0.5150171376928306  2.417677350191343 0.3274903893149403 -1.506992657970159 
[...]
<PointData  Tensors="stress"> 
<DataArray  type="Float64"  Name="stress"  NumberOfComponents="9" format="ascii">1.1205056690827617e+00 -1.9564356331211030e-01 -5.9907873571067878e+00 -1.9564356331211030e-01 2.2431454235148371e+00 -8.8078204280376282e-01 -5.9907873571067878e+00 -8.8078204280376282e-01 6.6806509256572095e+00  -1.4968466496216011e+00 1.0433398034272721e+00 3.0495351742242689e+00 1.0433398034272721e+00 1.0185109345408945e+01 -1.7143987249641170e+00 3.0495351742242689e+00 -1.7143987249641170e+00 2.8330074691751470e+00  -5.6351053380686866e-01 1.6127898577472097e+00 -3.6708480218930539e+00 1.6127898577472100e+00 9.7569684071663687e+00 1.9300603766710536e+00 -3.6708480218930526e+00 1.9300603766710531e+00 2.6026323477305016e+00  6.7276964270368333e-01 -7.5964859206357516e-01 5.5968467202944820e+00 -7.5964859206357516e-01 2.0585543793948222e+00 -5.4045965775357607e-01 5.5968467202944820e+00 -5.4045965775357607e-01 7.2273984923674170e+00  2.3099295522639647e+00 -2.1914541752827468e-01 1.1995076883348053e+00 -2.1914541752827468e-01 -1.5785774718497854e+00 1.2172027441661748e+00 1.1995076883348053e+00 1.2172027441661748e+00 9.8968438995151387e-01  4.0860494765862052e+00 -1.4906890242856319e-01 -1.0794223791389217e+00 -1.4906890242856316e-01 -2.5309328776958977e+00 -8.1501341572720098e-01 -1.0794223791389217e+00 -8.1501341572720098e-01 1.3335222639160458e+00  6.2761937963139680e-01 2.1558854537110692e-01 -9.5942983634162593e-01 2.1558854537110697e-01 2.9721537177518009e-01 3.7984457304468511e+00 -9.5942983634162593e-01 3.7984457304468511e+00 2.3478405644147129e+00  3.3581909005766336e-01 5.8590486727740321e-01 1.2077793576474751e+00 5.8590486727740321e-01 1.1610468382955401e+00 -1.7967735165640026e+00 1.2077793576474751e+00 -1.7967735165640026e+00 -4.7324251602932282e-01  -1.9478174513454092e+00 -9.0083880020083140e-01 -3.3814140970171129e+00 -9.0083880020083140e-01 5.8321714689791087e+00 -1.7249832657876842e+00 -3.3814140970171129e+00 -1.7249832657876842e+00 5.4712621337272900e+00  -2.3918980711199360e+00 -1.2321141450871906e+00 -2.6876909243624669e+00 -1.2321141450871904e+00 7.6973148581489861e+00 -1.3380660145640071e+00 -2.6876909243624669e+00 -1.3380660145640071e+00 5.1219557490422618e+00  -2.9191777768954865e+00 -2.1227580743998078e-01 -2.3153879910746271e+00 -2.1227580743998090e-01 8.3476227314266165e+00 -7.2325396855248103e-01 -2.3153879910746276e+00 -7.2325396855248092e-01 5.7183480591114897e+00  -3.3388009445708189e+00 5.7058155890049322e-01 3.7682810666878383e-02 5.7058155890049322e-01 8.1707278966030401e+00 -1.1512931308231811e+00 3.7682810666878418e-02 -1.1512931308231811e+00 6.7103546209792695e+00  -2.4473629090581666e+00 -8.6508892314478489e-02 2.6821433059399067e+00 -8.6508892314478586e-02 9.4060023326208650e+00 -1.4975772850245685e+00 2.6821433059399067e+00 -1.4975772850245685e+00 4.9018035574843051e+00  -2.3060495954991316e+00 -9.4723665781570210e-01 2.3753096276622463e+00 -9.4723665781570210e-01 1.0435675114227118e+01 -5.3376682575541545e-01 2.3753096276622463e+00 -5.3376682575541545e-01 3.5573730388434113e+00  -2.5617896139876746e+00 -3.1055638538807717e-01 2.0780775241118641e+00 -3.1055638538807717e-01 1.0689170959541965e+01 -3.3083126711358879e-01 2.0780775241118641e+00 -3.3083126711358879e-01 3.7019911514429071e+00  -2.1932830048504570e+00 1.8638771634709622e-01 2.7289213381821682e+00 1.8638771634709614e-01 1.0119414257484713e+01 -8.8423723801407461e-01 2.7289213381821682e+00 -8.8423723801407494e-01 3.5577372438259740e+00  -1.1814062179405684e+00 7.6333418706339085e-01 3.5286279656531008e+00 7.6333418706339085e-01 1.0047586198832592e+01 -1.1891672156364963e+00 3.5286279656531008e+00 -1.1891672156364950e+00 2.9232362967348902e+00  -8.5093175044521663e-01 -2.7933936368497259e+00 3.7534616197611017e+00 -2.7933936368497259e+00 8.6406493422524662e+00 -3.0279154408043391e-01 3.7534616197611017e+00 -3.0279154408043391e-01 3.5613871448549146e+00  2.6439911049220464e+00 -5.6867366129760057e+00 2.9831862986266202e+00 -5.6867366129760066e+00 4.7820693876951337e+00 1.2107489727561633e+00 2.9831862986266211e+00 1.2107489727561633e+00 4.0001111459746364e+00  6.7815678911318891e+00 -4.5115869996711302e+00 2.2677648064233531e+00 -4.5115869996711293e+00 3.4551214390497076e-02 2.4208495770032195e+00 2.2677648064233531e+00 2.4208495770032195e+00 4.4959841887877756e+00  8.5811480291355728e+00 -1.0783695197329981e+00 1.3918988172834601e+00 -1.0783695197329983e+00 -1.7362862571766917e+00 3.4896530200864850e+00 1.3918988172834599e+00 3.4896530200864855e+00 4.6035266993188486e+00  8.0017377880735214e+00 2.4979786946402962e+00 -1.8205206520922118e-01 2.4979786946402962e+00 -6.7302248724496638e-01 4.1798561473984304e+00 -1.8205206520922113e-01 4.1798561473984304e+00 4.3413737293211279e+00  5.0586712540548655e+00 4.8133691989177789e+00 -1.5560345999068532e+00 4.8133691989177789e+00 2.5866647501322348e+00 3.9319114090038192e+00 -1.5560345999068532e+00 3.9319114090038192e+00 3.7869507886298317e+00  1.6686664353153409e+00 4.4262209664540197e+00 -2.7627372065820288e+00 4.4262209664540224e+00 6.5904422488540506e+00 3.2524872810724634e+00 -2.7627372065820288e+00 3.2524872810724634e+00 3.2739053293265816e+00  -2.4289635978079138e+00 -4.0022079197662425e-01 3.1597407354743443e+00 -4.0022079197662425e-01 5.1620742430039970e+00 3.0653184147251683e-01 3.1597407354743443e+00 3.0653184147251683e-01 5.7530909851283516e+00  -2.3942953206278790e+00 -8.4383341922092148e-01 2.7957639845474271e+00 -8.4383341922092148e-01 7.2407189953517079e+00 2.1056232200223296e-01 2.7957639845474271e+00 2.1056232200223296e-01 4.4684698800271079e+00  -2.7446611687715006e+00 -8.1629018756449467e-01 2.4540342494166696e+00 -8.1629018756449467e-01 7.7222709718818505e+00 6.3510829408903713e-01 2.4540342494166696e+00 6.3510829408903713e-01 5.5383824255173861e+00  -3.3892741059128078e+00 -3.1297738307391765e-01 5.0443906742840749e-01 -3.1297738307391765e-01 8.5202999489110258e+00 1.1547955214950381e+00 5.0443906742840749e-01 1.1547955214950383e+00 6.2021363534839979e+00  -3.2231978573228814e+00 1.2418871582015648e-01 -1.0033930132004787e+00 1.2418871582015648e-01 9.2590736708540540e+00 1.9030922553706542e+00 -1.0033930132004787e+00 1.9030922553706542e+00 5.6573453762637023e+00  -2.8642202781095736e+00 -4.2816663135329014e-01 -1.3875472165433833e+00 -4.2816663135329014e-01 9.9963461792426518e+00 2.2473391914180723e+00 -1.3875472165433833e+00 2.2473391914180723e+00 4.4090482160275748e+00  -3.0333801155398370e+00 -2.4920881477534443e-01 -1.0069607489114729e+00 -2.4920881477534421e-01 9.9742373831219400e+00 2.5271767489625421e+00 -1.0069607489114727e+00 2.5271767489625425e+00 4.7066082573251489e+00  -3.0153137969925936e+00 9.7148845104627413e-01 -1.3455830021519386e+00 9.7148845104627424e-01 9.5762574415714443e+00 2.2137994643704642e+00 -1.3455830021519386e+00 2.2137994643704642e+00 5.3780505883608765e+00  -1.8622913669476759e+00 1.3528812572048299e+00 -2.9409807501758083e+00 1.3528812572048301e+00 9.4238527090511788e+00 2.2788714357077171e+00 -2.9409807501758083e+00 2.2788714357077171e+00 4.5216876517350402e+00  1.9007863249668647e-01 -4.3451742888272304e-02 5.4150172122231126e+00 -4.3451742888272304e-02 2.3033077291117197e+00 -1.3117720690160906e+00 5.4150172122231126e+00 -1.3117720690160906e+00 7.5779394000440083e+00  3.7812787030745620e-01 6.3780062951726968e-01 4.6103820192036933e+00 6.3780062951726968e-01 1.9870482156038163e+00 -2.8726325029671376e+00 4.6103820192036933e+00 -2.8726325029671376e+00 7.6566466537588926e+00  8.5435153136081021e-01 1.1676036256390967e+00 3.8709267935645140e+00 1.1676036256390967e+00 1.4323627702311772e+00 -3.8274335349058450e+00 3.8709267935645140e+00 -3.8274335349058450e+00 7.9118373739798544e+00  1.7297560788585222e+00 9.4461277910036245e-01 2.3373031268093705e+00 9.4461277910036245e-01 6.9895745618670568e-01 -4.7437850835150934e+00 2.3373031268093709e+00 -4.7437850835150934e+00 8.0752473156911311e+00  2.1644137254692679e+00 6.3637746625551272e-01 1.4469754160195918e+00 6.3637746625551272e-01 3.0693379517736652e-01 -5.2420069684627491e+00 1.4469754160195918e+00 -5.2420069684627491e+00 8.3094770436192569e+00  2.3344935625250574e+00 9.1785070379231684e-02 -4.8279029067146467e-01 9.1785070379231684e-02 2.5262695786142858e-01 -5.4689211207207631e+00 -4.8279029067146467e-01 -5.4689211207207631e+00 8.6271238201150346e+00  2.2938710239823106e+00 -3.6298947224921363e-01 -1.7940707786168020e+00 -3.6298947224921363e-01 4.4513536551646055e-01 -5.4163891833122815e+00 -1.7940707786168020e+00 -5.4163891833122815e+00 7.5553020652431258e+00  1.8899405500309159e+00 -1.0561556187962677e+00 -4.1255223954802016e+00 -1.0561556187962677e+00 1.2049034469697899e+00 -3.9526797921919701e+00 -4.1255223954802016e+00 -3.9526797921919701e+00 8.3217761123637324e+00  8.8411464576317245e-01 -8.7396777739709741e-01 -5.3391859583476862e+00 -8.7396777739709741e-01 1.8548811788855966e+00 -2.3276403643252874e+00 -5.3391859583476862e+00 -2.3276403643252874e+00 8.9854288469599837e+00  2.0796446574670830e+00 7.3586313323476893e-01 6.1954553324828554e-01 7.3586313323476893e-01 -1.4383364920300823e+00 1.6024805750938280e+00 6.1954553324828554e-01 1.6024805750938280e+00 1.1027010135147226e+00  1.8233470953115216e+00 1.5655561995554679e+00 2.8042301727859953e-01 1.5655561995554679e+00 -9.2829052409427348e-01 1.7189871316445600e+00 2.8042301727859953e-01 1.7189871316445600e+00 9.9503072603699050e-01  6.6979258364583838e-01 1.8264813849665873e+00 -3.2904735166449367e-01 1.8264813849665873e+00 -8.0267322498682361e-02 1.7936899071601038e+00 -3.2904735166449367e-01 1.7936899071601038e+00 1.1462294394261576e+00  -3.9384946593457801e-02 1.9902957128336995e+00 -9.9066533649754840e-01 1.9902957128336995e+00 1.4675589807246761e+00 1.6135227520314872e+00 -9.9066533649754840e-01 1.6135227520314874e+00 6.1931658668257694e-01  -8.6267164512132810e-01 1.2841639333407093e+00 -1.3805235860463019e+00 1.2841639333407096e+00 2.3882557083936891e+00 1.4452490502716349e+00 -1.3805235860463019e+00 1.4452490502716349e+00 5.3678798427300167e-01  -1.4024526183432102e+00 4.4134993332249656e-01 -1.6331904584385719e+00 4.4134993332249678e-01 2.6130938419677499e+00 9.9956470790375529e-01 -1.6331904584385712e+00 9.9956470790375529e-01 8.4749151605427075e-01  -1.1686928318710439e+00 -4.7911231336883447e-01 -2.0350574074463506e+00 -4.7911231336883464e-01 2.7113018296792846e+00 6.3212625201181527e-01 -2.0350574074463506e+00 6.3212625201181527e-01 8.0897386065993904e-01  -5.5650242753069279e-01 -1.6302122530876488e+00 -1.7519165573590725e+00 -1.6302122530876488e+00 2.0161538621972608e+00 1.1049708087246942e-02 -1.7519165573590723e+00 1.1049708087246991e-02 3.8010087256679809e-01  5.8748992466340266e-01 -2.1851546741431629e+00 -1.8370280778429491e+00 -2.1851546741431629e+00 5.0129356487520482e-01 8.1409740509551909e-02 -1.8370280778429493e+00 8.1409740509551951e-02 7.5049617797118084e-01  1.3140827860067381e+00 -9.8891886055853784e-01 -1.6489728633252483e+00 -9.8891886055853773e-01 -1.3490741054459550e+00 -6.3798931217549903e-01 -1.6489728633252483e+00 -6.3798931217549881e-01 1.1835778676778712e+00  3.1049501569091298e+00 -1.4127309259970444e+00 -1.2455795951665323e+00 -1.4127309259970438e+00 -1.8390676492175912e+00 -9.2614966593154480e-01 -1.2455795951665318e+00 -9.2614966593154513e-01 1.0859467537035248e+00  5.4391320082386354e+00 -8.8983497421116553e-01 -1.5100758270974632e+00 -8.8983497421116553e-01 -2.3332161329808820e+00 -2.0947667261097860e+00 -1.5100758270974632e+00 -2.0947667261097860e+00 2.8553271175478923e+00  5.4165116672146789e+00 -6.7990983489232903e-01 -1.3492465204459088e+00 -6.7990983489232903e-01 -8.8352663338622994e-01 -3.2322004874221033e+00 -1.3492465204459088e+00 -3.2322004874221033e+00 1.7591171689882776e+00  4.3470663667091616e+00 -1.8271492870017378e-01 -7.3526016059950139e-01 -1.8271492870017378e-01 -8.3650310680505946e-01 -2.7845724134238381e+00 -7.3526016059950139e-01 -2.7845724134238381e+00 4.8911084389457415e-01  3.5998102028786469e+00 -5.2093059983125724e-02 -5.8746508893623439e-01 -5.2093059983125613e-02 -1.8578993180708525e+00 -1.8965911157061033e+00 -5.8746508893623439e-01 -1.8965911157061033e+00 1.0870721486956685e+00  3.2235994268823682e+00 -6.6721284808368619e-01 -9.8847962805301770e-01 -6.6721284808368619e-01 -2.4913274507987575e+00 -1.2036478097985046e+00 -9.8847962805301759e-01 -1.2036478097985046e+00 2.6318787737167493e+00  2.5101557047192564e+00 -7.1163606233713916e-01 -7.9304217674539923e-01 -7.1163606233713916e-01 -2.5641659355567343e+00 -5.6146290184300962e-01 -7.9304217674539890e-01 -5.6146290184300962e-01 2.7645914436131882e+00  1.6367863927138258e+00 -1.0457381399368593e+00 -1.3910356717713349e-01 -1.0457381399368593e+00 -1.9477207967705330e+00 8.4534273647655656e-01 -1.3910356717713349e-01 8.4534273647655656e-01 1.7764253089515667e+00  1.6579927012162090e+00 -1.5231881238148195e+00 -5.0122300416032307e-03 -1.5231881238148195e+00 -1.2063224467193976e+00 2.4245532011866846e+00 -5.0122300416032411e-03 2.4245532011866846e+00 2.5553754021518467e+00  1.8671487708922134e+00 -1.2860309344101013e+00 -2.0362309490824548e-01 -1.2860309344101013e+00 -1.1800018636027145e+00 3.2015922225684923e+00 -2.0362309490824540e-01 3.2015922225684923e+00 3.8033905811549724e+00  6.3506434770104359e-01 1.7270963548396517e-01 -2.5182249422023206e-01 1.7270963548396517e-01 4.0789692641558233e-02 3.5916970517552689e+00 -2.5182249422023206e-01 3.5916970517552689e+00 1.8119713140163938e+00  6.0663879656136621e-01 5.9841569057583276e-02 2.5924317977441053e-01 5.9841569057583276e-02 -1.1818837055232709e-01 3.2947533989445672e+00 2.5924317977441025e-01 3.2947533989445672e+00 1.4127116571250429e+00  7.0764512604470087e-01 -1.6885542521703734e-01 9.1886057357115869e-01 -1.6885542521703734e-01 -1.9767201113610486e-01 3.1546181055670068e+00 9.1886057357115880e-01 3.1546181055670068e+00 1.4176343417861617e+00  8.1509983421956800e-01 -4.2717729598987653e-01 1.3398150931783512e+00 -4.2717729598987653e-01 -1.3476464515798045e-02 2.8248070265800096e+00 1.3398150931783512e+00 2.8248070265800096e+00 1.0849737044689913e+00  6.5191620226092550e-01 -3.4283335118904562e-01 1.8483743888980233e+00 -3.4283335118904562e-01 -3.1292594690042828e-02 2.4510565944932137e+00 1.8483743888980233e+00 2.4510565944932137e+00 9.4774536777634555e-01  1.0808717673519308e+00 -2.3179098047741026e-01 1.6940308777419972e+00 -2.3179098047741026e-01 1.7725104494172589e-01 1.8440478208601394e+00 1.6940308777419979e+00 1.8440478208601394e+00 -4.1652140365862955e-01  1.1754250575175227e+00 -3.9132203745166855e-01 1.9823459587803545e+00 -3.9132203745166855e-01 2.9592051099984062e-01 1.0767998310177482e+00 1.9823459587803545e+00 1.0767998310177482e+00 -6.3863834091960192e-01  7.4692013921874845e-01 -7.5416726280966062e-01 2.5928375297241772e+00 -7.5416726280966062e-01 7.2483210384598151e-01 7.8583617620104484e-01 2.5928375297241772e+00 7.8583617620104484e-01 1.2959303579444292e-01  8.2439632360278181e-01 -8.1715132193383133e-01 2.3547043847197515e+00 -8.1715132193383133e-01 1.0863480713061600e+00 4.9805396682988980e-02 2.3547043847197515e+00 4.9805396682988980e-02 -6.9277272734338047e-01  5.4540560654497450e-01 -8.5566205278655505e-01 2.3588540033264938e+00 -8.5566205278655505e-01 1.4673962767644015e+00 -3.2775735173061366e-01 2.3588540033264938e+00 -3.2775735173061366e-01 -7.6662769847253942e-01  -3.2187170108212600e-02 -5.2028397503827795e-01 2.1701936436183034e+00 -5.2028397503827795e-01 1.7038454344972618e+00 -9.6929917406163579e-01 2.1701936436183034e+00 -9.6929917406163579e-01 -3.9275864200220711e-01  -1.8329692013338744e-01 1.0159762191698124e-01 2.1023047882918826e+00 1.0159762191698124e-01 1.4978849321601930e+00 -1.3429941620251720e+00 2.1023047882918826e+00 -1.3429941620251720e+00 2.2792232211003943e-01  3.3673516917037666e-01 1.6735132751744844e-01 1.3740186790945719e+00 1.6735132751744849e-01 1.5835384540340047e+00 -1.4948963993080124e+00 1.3740186790945719e+00 -1.4948963993080124e+00 -9.1728079261744722e-01  3.9915795168081264e-01 -6.8504565246062277e-01 -1.5310230652403642e-01 -6.8504565246062277e-01 1.9154863121198735e+00 -1.9162700763383356e+00 -1.5310230652403656e-01 -1.9162700763383356e+00 -1.5630667826109195e+00  -1.3686967696412056e-01 5.3613664327631239e-01 9.5825594168012507e-01 5.3613664327631239e-01 1.2363312713462133e+00 -1.8565945742497039e+00 9.5825594168012507e-01 -1.8565945742497039e+00 3.5233452618159571e-02  2.2142703421681920e+00 -9.0926484648771511e-01 8.1812299199031113e-01 -9.0926484648771488e-01 -1.8646041295882481e+00 8.3686795514943313e-01 8.1812299199031113e-01 8.3686795514943313e-01 1.4705868863019507e+00  2.1448984477603568e+00 -9.3210163291389747e-01 1.0786184646261050e+00 -9.3210163291389758e-01 -2.0803447295902209e+00 1.1846197997230129e-01 1.0786184646261050e+00 1.1846197997230129e-01 1.6669203765348948e+00  2.8325924157473912e+00 -1.4450323528903832e+00 1.1306942184065396e+00 -1.4450323528903826e+00 -2.3390094289482888e+00 -6.6452754348832591e-02 1.1306942184065396e+00 -6.6452754348832591e-02 2.4482712020343800e+00  3.7151822279490960e+00 -1.4821052748742509e+00 1.2300997018549316e+00 -1.4821052748742509e+00 -2.5537341537483722e+00 3.6421060300511460e-01 1.2300997018549311e+00 3.6421060300511460e-01 3.0552118801905768e+00  3.4145778269650013e+00 -1.2479606342684793e+00 1.1955762889140500e+00 -1.2479606342684790e+00 -2.5319557018360763e+00 6.4398797695528687e-01 1.1955762889140504e+00 6.4398797695528687e-01 3.0332873658651169e+00  3.0817574132048371e+00 -9.8170799092152872e-01 9.4030249523608345e-01 -9.8170799092152872e-01 -2.6470723590433498e+00 4.9397588819114874e-01 9.4030249523608345e-01 4.9397588819114874e-01 3.0631468055787323e+00  2.4535962036606582e+00 -8.0686997691004458e-01 7.6303850312123422e-01 -8.0686997691004458e-01 -2.6204765495283922e+00 2.3388831793487813e-01 7.6303850312123422e-01 2.3388831793487813e-01 3.2217085033707660e+00  1.7463833958392094e+00 -7.5849269194969493e-01 1.3476604129491370e+00 -7.5849269194969493e-01 -2.4018799987061903e+00 -1.8132713585382632e-01 1.3476604129491370e+00 -1.8132713585382632e-01 3.1025469355698001e+00  1.0158169408117823e+00 -5.0015124636174080e-01 1.4600473695154781e+00 -5.0015124636174080e-01 -1.1279034353563802e+00 -1.5224817320354300e-01 1.4600473695154781e+00 -1.5224817320354300e-01 4.4478899414401440e-01  3.7976059470638082e+00 1.0794380562455634e+00 -7.0211504961013604e-01 1.0794380562455637e+00 -2.2174526665356349e+00 -1.5374953065133665e+00 -7.0211504961013604e-01 -1.5374953065133667e+00 1.4945404331246812e+00  3.3409516317397867e+00 2.7487335260945831e+00 -2.6500116739381252e-01 2.7487335260945831e+00 -1.3128728396741272e+00 -1.6692364150490768e+00 -2.6500116739381252e-01 -1.6692364150490768e+00 1.6524566905850180e+00  1.5241538923623059e+00 3.2645622931874718e+00 3.0598163305275122e-01 3.2645622931874718e+00 -9.6075972188204642e-02 -1.5907123216032490e+00 3.0598163305275122e-01 -1.5907123216032490e+00 2.0355946090761892e+00  -3.6471890259989054e-01 3.2062232906769381e+00 6.6940364739102265e-01 3.2062232906769381e+00 1.8843619193993413e+00 -1.5256615210586795e+00 6.6940364739102276e-01 -1.5256615210586795e+00 2.0016208323184164e+00  -1.6637204268358268e+00 1.9965446797097579e+00 1.0632018680922053e+00 1.9965446797097579e+00 2.4903320592729496e+00 -1.4414247253034096e+00 1.0632018680922053e+00 -1.4414247253034096e+00 2.1972801882269550e+00  -1.9904617022900508e+00 7.4187379708738344e-01 1.5170814348726529e+00 7.4187379708738344e-01 3.0968006417532172e+00 -1.0524197251391001e+00 1.5170814348726529e+00 -1.0524197251391001e+00 1.7148771799143352e+00  -1.6103944595623256e+00 -7.7622017241448193e-01 1.8252501225202939e+00 -7.7622017241448193e-01 2.5113221418062990e+00 -6.0948898999800272e-01 1.8252501225202939e+00 -6.0948898999800272e-01 1.2562109431528115e+00  -1.5587600239952251e+00 -1.1824744555133981e+00 1.5647260122947677e+00 -1.1824744555133981e+00 1.8368753236715547e+00 -4.8080380902306785e-01 1.5647260122947677e+00 -4.8080380