<?xml version="1.0"?>
<VTKFile type="UnstructuredGrid"  version="0.1"  >
<UnstructuredGrid>
<Piece  NumberOfPoints="1268" NumberOfCells="4847">
<Points>
<DataArray  type="Float64"  NumberOfComponents="3"  format="ascii">1.994716987487452 0.01317707561264319 -1.202466945460223e-11  1.374072606111497 -0.08614134488653273 -5.388997575085332  -1.285941478930618 0.1916557790035214 -5.691288663606836  -1.59032616235459 -0.4515196446136259 1.626303258728257e-17  0.4950030257755884 2.521650519233041 -5.495391852657774  -0.4107718940653654 -2.429115409112172 -5.58531208084276  -0.9314707163843408 -3.006923447963563 4.87890977618477e-17  1.161824811771535 2.948440156756841 -3.391384395534658e-14  2.146749234505421 0.002696741478414759 -0.5615078450779066  2.330988047973839 -0.000873250973709995 -1.113141311680313  2.540713632977715 -0.1384292375506191 -1.637427654548237  2.645241452520652 -0.2872312815961211 -2.18637082393926  2.504842461151312 -0.2752146673621067 -2.746850782899552  2.287876352721185 -0.2088259978706829 -3.283011632728322  2.137771360922677 -0.2093380261300688 -3.844996501809416  1.970142554575494 -0.2193701374385486 -4.401638277082749  1.701580801829277 -0.1696632515169769 -4.915066532844666  1.398049690886424 0.4419377546899956 -5.387643705321969  1.183972204621215 0.9208338616597355 -5.413149504812257  0.7621482426349403 1.234356207118232 -5.461782499987256  0.2539805730796886 1.370727420898931 -5.519751404145364  -0.2689415860383004 1.319053689498898 -5.578906487138381  -0.7357170559581984 1.076180709179107 -5.631191713357971  -1.086003096318238 0.6812820615514149 -5.669884670156524  -1.65706961757681 -0.5275128747266272 -0.6240725009925172  -1.829082870387909 -0.8347372240299333 -1.153553189134448  -2.030635262011336 -1.097965926806997 -1.693320688638939  -2.148557703924963 -0.9683820133813712 -2.295450526931833  -2.119047321408695 -0.7521727279271558 -2.890676896601294  -1.972500555455803 -0.7106310836492745 -3.509380855831461  -1.885028119342598 -0.4902108162504233 -4.093718100793141  -1.832050776792238 -0.1313823297003599 -4.617858136599065  -1.636180550340053 0.1151199882480144 -5.165527944859976  -1.540434086810702 0.1014447694855235 -7.644826989049428e-17  -1.339902801239663 0.6191128040412099 2.218327606354497e-17  -0.9949589579071262 1.053322092476122 2.12059320661159e-17  -0.5243975458638882 1.346285776146202 7.754217898549941e-16  0.01399251627036286 1.481823287560149 3.252316763596149e-17  0.5696211504784076 1.47677978548424 -7.207855520904863e-17  1.105448032340458 1.331487337928338 1.951563910473908e-16  1.561367740818086 1.018090979386763 -2.179459114756194e-16  1.860006992193919 0.551530302300456 1.369433074745588e-16  -0.152869286718376 2.506583809965366 -5.568804938302105  -0.7781210310064858 2.335338381675429 -5.639249366957451  -1.340550096787874 2.011723800088065 -5.702178028336585  -1.803922993566052 1.555830170950866 -5.753534898075912  -2.144678763029901 1.000979069722826 -5.790734833138769  -2.346903237737564 0.3811866585909049 -5.812061421922149  -2.406990243842066 -0.2684488461825228 -5.817196438260218  -2.318433628103212 -0.9144163570965761 -5.805488779558074  -2.059391262210163 -1.511004864267824 -5.774580158166454  -1.615755841275718 -1.983465489741105 -5.72306417450185  -1.043145925381342 -2.287058241276404 -5.657361969815248  -0.6986882361605687 -2.420627649803484 -5.024556445072709  -0.8272574030199392 -2.685291244074475 -4.476216325063944  -0.8113210073272845 -3.118860027310894 -4.01596683617901  -0.7618552434953355 -3.481598098596065 -3.504026669625047  -0.7509882165597778 -3.609083979854663 -2.886473298216772  -0.7986167670519319 -3.732483084086931 -2.268445488219849  -0.8276969497603353 -3.810997815301134 -1.64593496945388  -0.7425506523451623 -3.557242155569485 -1.078322423839125  -0.7147449622328144 -3.21189056194362 -0.5511080601316157  -1.482234509376526 -2.778582553401298 -5.854479658363816e-16  -1.970737176894139 -2.437284655419533 2.764697292186607e-16  -2.362818572203899 -1.988727212877528 2.439101268600111e-16  -2.642390785384022 -1.462244173776716 5.051059276813266e-16  -2.812149102113852 -0.89052423419162 2.276851973687203e-16  -2.877946727920729 -0.2976446157883296 -1.219909928720168e-16  -2.842947107925845 0.2978601752284433 4.065446096494693e-17  -2.70313036896374 0.8776122116387211 -5.041496169361013e-16  -2.452324348076021 1.418519584933707 4.379274460317988e-16  -2.098265626135573 1.898294456130726 1.951060033519619e-16  -1.658391347368763 2.301023318502569 -1.789574489620802e-16  -1.154148079923361 2.619757341302747 -2.081203863085907e-15  -0.6042202207747882 2.851073703499478 -3.577841418755692e-16  -0.02416138323675775 2.990516581461941 4.065982498622179e-16  0.5710641261211448 3.028216945076794 -1.46882551317968e-16  0.6414151130412097 2.696325287154043 -4.983333021490838  0.771852374565919 2.778456367279237 -4.445188759107248  0.8805845204306011 2.73078881179073 -3.897720120696569  0.9481597620953167 2.69798349057175 -3.343104559074628  0.9815370707090804 2.778214865778854 -2.789250505759619  1.013475345489448 2.861817704396183 -2.235671116027784  1.055849759321274 2.898356228459238 -1.677594140621302  1.093646323460014 2.92793989028903 -1.118725590781912  1.124098871622056 2.957526991478201 -0.5594169689370629  0.2477015793419729 -2.415655802610486 -5.510682951113449  0.8844491790088972 -2.245867158009595 -5.438931443942415  1.464891069119211 -1.932330028996181 -5.373934600293736  1.955087092649627 -1.489613175355717 -5.319502697776375  2.318355026965356 -0.937054784961175 -5.279744576064058  2.524994411863564 -0.307899182343253 -5.257941630215678  2.574632820450045 0.3531084349228537 -5.254020561031156  2.465743861849647 1.006614152640354 -5.268052816559671  2.183897076015212 1.604484044160622 -5.301550147358176  1.722560240631265 2.07491696755195 -5.35506775502591  1.13806318635062 2.378906583716481 -5.422118662603529  1.742182153284979 2.73179858498085 5.854691697147836e-16  2.262480931380501 2.395264875892136 -2.601681534737615e-16  2.698000706832733 1.954727370266727 -3.903113804560263e-16  3.021530388777258 1.426473918441798 1.707421408502106e-16  3.223363606607101 0.8405687193648443 -2.844806418042028e-16  3.305434793487241 0.2261994274297442 -4.472186606099012e-16  3.269241566985055 -0.3926051469820059 3.171555149681837e-16  3.113478077610213 -0.9924495549400153 3.510830505762065e-16  2.840400132149515 -1.548806515270482 -1.707368614952523e-16  2.466120284856568 -2.042983582774378 9.732831365154574e-17  2.008125599488538 -2.460814027017948 -3.577575055983979e-16  1.482521285196868 -2.789563899556613 -4.886146623064541e-17  0.9057866143556688 -3.01678997208197 -2.439392613813594e-16  0.2964958724913082 -3.130681163554852 3.414395345104792e-16  -0.32338307292875 -3.126978161260848 2.926910878106614e-16  -1.29067345658392 -0.3506098753383553 -5.690421630247788  -1.068897680254163 -0.8451623229646739 -5.663999894259847  -0.6782440885714781 -1.219621806060448 -5.6187489875115  -0.168757542531344 -1.390394566692369 -5.560546895724229  0.3611301401510615 -1.294122251639114 -5.500717901478111  0.8191548613516448 -1.005201308695582 -5.449538098373106  1.16817203978903 -0.5892762115769014 -5.411042670828763  1.960898302630318 -0.551652302616722 -8.131516293641286e-17  1.751009740180289 -1.077278642631261 7.445724005953314e-16  1.394016468000002 -1.516729095803803 1.136104663605282e-15  0.9227767039454898 -1.830301465573364 3.434443593283319e-16  0.3780412068884804 -1.984007749105097 8.617772484356591e-16  -0.1885780664025548 -1.977994130030172 2.357202029695971e-16  -0.7327557451871473 -1.821291124380143 1.942410916395698e-17  -1.191068596016128 -1.491774666596192 2.975009434367945e-16  -1.480405544894888 -1.006855825633415 6.954512630084263e-16  -1.812414118534285 0.2561131097252937 -2.664867827914479  2.421751940242729 0.6298287624476981 -1.933377861698098  0.7556418177061754 1.42269463362527 -4.617654324361507  0.003134751711410342 1.574821943356493 -0.9318675177876981  1.015098001669947 1.51699057942374 -0.9441494884276413  0.6193243625380082 1.764115149411371 -1.862230514405671  -0.4757031201037318 1.549728101933577 -1.958273018773558  0.1126459993007786 1.698838152590054 -2.957602797129454  -0.3405660022430232 1.569615851499001 -4.678135257405353  1.818199099779932 0.7365610114574719 -3.763003518505052  -0.9541815370276669 1.23451227632913 -2.875526912859068  -1.269464226480212 1.016489154450913 -4.672047638709048  1.301562892980348 1.557566760682666 -2.802482532053872  -0.7813756340336595 1.414221906310649 -3.725761628685261  -1.58370798409762 0.5643609111372817 -3.581008460136619  -0.988817348255397 1.158392548936659 -1.014254585170146  -1.607700527190565 0.2800106654898483 -1.030081240453645  -1.388203055800784 0.7951310659851955 -1.943712885648593  0.8261955720421881 1.570157055202129 -3.620947225245673  1.681455131778566 1.410849015379531 -1.876189895849114  1.878739160554727 0.943024132521903 -0.9866418074548234  2.103426639579445 1.000735947836943 -2.593434794762663  1.62623803052506 0.6468498306152269 -4.727220189271843  -1.882943490361709 -0.1546739965127431 -1.761716647663214  0.05868355051519467 1.656538949473053 -3.863342338366238  2.465845305360337 0.2632819454094029 -2.663569745038379  1.994842599423799 0.5019775153043848 -0.4779055074204815  2.1671824130763 0.4980244878585698 -1.027636182799239  1.710213566460811 0.9718796190568162 -0.4957578884333736  1.845584590132108 0.2253887364997403 -4.583879812097906  1.579035044615276 0.2924902970866011 -5.101748935835201  1.409777182251665 0.7868327264427526 -5.07202467441607  -1.039178737375989 1.089168173550246 -5.170746090958521  -1.377687418630729 0.6683636420802941 -5.233117919580046  -1.641402128985454 0.4875654733502939 -4.648722230221863  -1.765467255797776 -0.2695484060062747 -1.079683539430899  -1.617858736076732 -0.08318463488274264 -0.5123563299218489  -1.474019211051276 0.4496529111656123 -0.5150171376928306  2.417677350191343 0.3274903893149403 -1.506992657970159 
[...]
<PointData  Tensors="stress"> 
<DataArray  type="Float64"  Name="stress"  NumberOfComponents="9" format="ascii">1.0088395378879991e+00 -1.9748690316923942e-01 -5.8397452333892810e+00 -1.9748690316923942e-01 2.1425747020406725e+00 -8.1806506647915134e-01 -5.8397452333892810e+00 -8.1806506647915134e-01 6.4246750793051843e+00  -1.5379848894553498e+00 1.0122411625325451e+00 2.9972313660277079e+00 1.0122411625325451e+00 9.8974463979726206e+00 -1.6883826509196953e+00 2.9972313660277083e+00 -1.6883826509196953e+00 2.7029792058446276e+00  -6.3310806293131627e-01 1.5686450262573517e+00 -3.5971144605885104e+00 1.5686450262573517e+00 9.5068015303362259e+00 1.8999589464683149e+00 -3.5971144605885108e+00 1.8999589464683149e+00 2.4636966705997558e+00  5.7793982489022222e-01 -7.5229467717508891e-01 5.4504093677634211e+00 -7.5229467717508891e-01 1.9668180502236787e+00 -5.7280317983589146e-01 5.4504093677634193e+00 -5.7280317983589146e-01 6.9563413913910681e+00  2.2544925071745885e+00 -2.1293452340486990e-01 1.1801584748678078e+00 -2.1293452340486990e-01 -1.5580550979929282e+00 1.1713848868934820e+00 1.1801584748678078e+00 1.1713848868934820e+00 9.3817877863892662e-01  3.9981598890832610e+00 -1.4564586749814881e-01 -1.0687357885230895e+00 -1.4564586749814881e-01 -2.4902580348976913e+00 -7.8788040496583822e-01 -1.0687357885230895e+00 -7.8788040496583822e-01 1.2650189968388734e+00  6.1087890832851932e-01 2.3810997130251907e-01 -9.7515643405331953e-01 2.3810997130251879e-01 2.5454615422595855e-01 3.6843010807227627e+00 -9.7515643405331953e-01 3.6843010807227627e+00 2.2196659539459698e+00  3.2388607560670424e-01 5.8475849863604823e-01 1.1884909556288694e+00 5.8475849863604823e-01 1.1400607626274157e+00 -1.7168536663724789e+00 1.1884909556288694e+00 -1.7168536663724789e+00 -4.9695024019875128e-01  -2.0046417980510274e+00 -8.8404641639766235e-01 -3.2838773624763604e+00 -8.8404641639766235e-01 5.6433444944547571e+00 -1.6858150272844874e+00 -3.2838773624763604e+00 -1.6858150272844874e+00 5.2840436910416075e+00  -2.4329535330048753e+00 -1.2014035472960773e+00 -2.6161262947802495e+00 -1.2014035472960773e+00 7.4628897138351888e+00 -1.3219925922497866e+00 -2.6161262947802495e+00 -1.3219925922497866e+00 4.9438808379530359e+00  -2.9461209825101622e+00 -2.0973304854909558e-01 -2.2579445054555913e+00 -2.0973304854909564e-01 8.1140305316604682e+00 -7.2036393919625119e-01 -2.2579445054555913e+00 -7.2036393919625119e-01 5.5261926966774153e+00  -3.3554459525468325e+00 5.5737088771936127e-01 3.7124850358082336e-02 5.5737088771936127e-01 7.9471671312221641e+00 -1.1396484395595337e+00 3.7124850358082336e-02 -1.1396484395595337e+00 6.4986628472491867e+00  -2.4794050967410399e+00 -8.6597300812549988e-02 2.6237076551479488e+00 -8.6597300812550043e-02 9.1669144677421706e+00 -1.4799607329322844e+00 2.6237076551479488e+00 -1.4799607329322848e+00 4.7221163263557484e+00  -2.3356139953647537e+00 -9.3745160648652093e-01 2.3247333988106194e+00 -9.3745160648652104e-01 1.0166203776571303e+01 -5.2885659541236563e-01 2.3247333988106194e+00 -5.2885659541236574e-01 3.4006265466496317e+00  -2.5857031374825632e+00 -3.1345714524649876e-01 2.0363584106283623e+00 -3.1345714524649881e-01 1.0418668272052143e+01 -3.2808739045257440e-01 2.0363584106283623e+00 -3.2808739045257440e-01 3.5426443249262101e+00  -2.2242793511998835e+00 1.7237249985128780e-01 2.6728744529732187e+00 1.7237249985128775e-01 9.8704024360398499e+00 -8.7322219896418418e-01 2.6728744529732187e+00 -8.7322219896418429e-01 3.4039824279978861e+00  -1.2348327779236932e+00 7.3621561773738042e-01 3.4638316189373120e+00 7.3621561773738042e-01 9.7869293029009903e+00 -1.1716371440044817e+00 3.4638316189373120e+00 -1.1716371440044817e+00 2.7929652268446130e+00  -9.0398711993449421e-01 -2.7488205258542178e+00 3.6864489907747386e+00 -2.7488205258542178e+00 8.3949924101217839e+00 -3.0529044273307077e-01 3.6864489907747386e+00 -3.0529044273307082e-01 3.4171868872747466e+00  2.5258202880340597e+00 -5.5815997185278050e+00 2.9326354577277201e+00 -5.5815997185278050e+00 4.6171455685061291e+00 1.1799442186206841e+00 2.9326354577277201e+00 1.1799442186206843e+00 3.8350809753830060e+00  6.5765263574987394e+00 -4.4207057563988217e+00 2.2323282813563332e+00 -4.4207057563988217e+00 -5.0448601605966543e-02 2.3618747881238789e+00 2.2323282813563332e+00 2.3618747881238784e+00 4.3116737620925170e+00  8.3356582386819369e+00 -1.0486768271488569e+00 1.3749751284054093e+00 -1.0486768271488569e+00 -1.7848960886847964e+00 3.4182280137741663e+00 1.3749751284054090e+00 3.4182280137741690e+00 4.4238766324245340e+00  7.7694981496576290e+00 2.4526582224415847e+00 -1.7023896159197591e-01 2.4526582224415847e+00 -7.4469897958023956e-01 4.0993034643696147e+00 -1.7023896159197593e-01 4.0993034643696147e+00 4.1762458144111250e+00  4.8687896851091876e+00 4.7210481634918198e+00 -1.5093659938889583e+00 4.7210481634918198e+00 2.4670508686295887e+00 3.8622028254310039e+00 -1.5093659938889583e+00 3.8622028254310039e+00 3.6156362618741107e+00  1.5380957783366225e+00 4.3357564010204745e+00 -2.6975973200062859e+00 4.3357564010204745e+00 6.4024159177217310e+00 3.1974330372122277e+00 -2.6975973200062859e+00 3.1974330372122282e+00 3.1257337926861886e+00  -2.4758284469261889e+00 -3.7260870209638930e-01 3.0508001474660085e+00 -3.7260870209638930e-01 4.9806483061019797e+00 3.0001617903562183e-01 3.0508001474660085e+00 3.0001617903562172e-01 5.5527147806797030e+00  -2.4334639515847765e+00 -8.1168318021777253e-01 2.7112496725671495e+00 -8.1168318021777253e-01 7.0205701919767600e+00 2.0421742799600190e-01 2.7112496725671500e+00 2.0421742799600204e-01 4.2911069456852795e+00  -2.7777645166570304e+00 -8.0258361272340228e-01 2.3781358091124210e+00 -8.0258361272340228e-01 7.4928712706562610e+00 6.2678914857231482e-01 2.3781358091124210e+00 6.2678914857231482e-01 5.3524984638066924e+00  -3.4019792082984899e+00 -3.2741613124236263e-01 4.8661777376738419e-01 -3.2741613124236268e-01 8.2758585923090227e+00 1.1382546284162520e+00 4.8661777376738419e-01 1.1382546284162518e+00 5.9979618815820892e+00  -3.2367940857581856e+00 1.0484128313349418e-01 -9.8534134126883033e-01 1.0484128313349411e-01 9.0056156667749647e+00 1.8755028938412976e+00 -9.8534134126883033e-01 1.8755028938412976e+00 5.4666517663825083e+00  -2.8774953033663104e+00 -4.3992714788277487e-01 -1.3619516416443465e+00 -4.3992714788277487e-01 9.7333985162452681e+00 2.2095883335974582e+00 -1.3619516416443465e+00 2.2095883335974587e+00 4.2409239106717393e+00  -3.0379376475461921e+00 -2.6084698231529746e-01 -1.0004995062406112e+00 -2.6084698231529757e-01 9.7064849845729277e+00 2.4825419208435431e+00 -1.0004995062406117e+00 2.4825419208435431e+00 4.5262242313068519e+00  -3.0288923725238983e+00 9.3860424708412493e-01 -1.3354681032946443e+00 9.3860424708412493e-01 9.3237310802183373e+00 2.1728672553916257e+00 -1.3354681032946445e+00 2.1728672553916257e+00 5.1851699504158750e+00  -1.9100721493776145e+00 1.3154220291295062e+00 -2.8834201562959980e+00 1.3154220291295062e+00 9.1759927175917095e+00 2.2434476874508626e+00 -2.8834201562959980e+00 2.2434476874508626e+00 4.3496530358951588e+00  8.8154532988345538e-02 -3.4278406752867696e-02 5.2668895202986583e+00 -3.4278406752867696e-02 2.2145701213455551e+00 -1.3043592974808291e+00 5.2668895202986592e+00 -1.3043592974808291e+00 7.3365365833079332e+00  2.9339961815435051e-01 6.3727680905590156e-01 4.4808830165313021e+00 6.3727680905590156e-01 1.8888769854032532e+00 -2.8227652304020081e+00 4.4808830165313021e+00 -2.8227652304020081e+00 7.3956224948025824e+00  7.6375542284783671e-01 1.1795678300582095e+00 3.7523944951182502e+00 1.1795678300582095e+00 1.3385988555413071e+00 -3.7392281581905613e+00 3.7523944951182497e+00 -3.7392281581905613e+00 7.6643184126721877e+00  1.6394629257721081e+00 9.4228101742454395e-01 2.2515350565943124e+00 9.4228101742454395e-01 6.1593145918089953e-01 -4.6418927778527967e+00 2.2515350565943124e+00 -4.6418927778527967e+00 7.7990853810811052e+00  2.0751765115911147e+00 6.4003417693925035e-01 1.3860681187236232e+00 6.4003417693925035e-01 2.0800394752611107e-01 -5.1117084418746215e+00 1.3860681187236232e+00 -5.1117084418746215e+00 8.0519467130475171e+00  2.2409565147376220e+00 8.4452796183684176e-02 -5.0434346750855408e-01 8.4452796183684176e-02 1.6323841802516936e-01 -5.3317427046702042e+00 -5.0434346750855408e-01 -5.3317427046702042e+00 8.3473816201920386e+00  2.2028721713183925e+00 -3.7024072988759671e-01 -1.7673631136271375e+00 -3.7024072988759671e-01 3.3272088032095809e-01 -5.2621249577047049e+00 -1.7673631136271375e+00 -5.2621249577047049e+00 7.3063311756807767e+00  1.7917737820262158e+00 -1.0529367269337497e+00 -4.0626001482731287e+00 -1.0529367269337495e+00 1.1188485497930025e+00 -3.8297339709328679e+00 -4.0626001482731287e+00 -3.8297339709328679e+00 8.0279223418417924e+00  7.9171534923924725e-01 -8.7229584645648206e-01 -5.2390358246419533e+00 -8.7229584645648206e-01 1.7588061603843728e+00 -2.2263387011434239e+00 -5.2390358246419515e+00 -2.2263387011434239e+00 8.6869218087544713e+00  2.0112645463429915e+00 7.2319112811403341e-01 6.2445705430913434e-01 7.2319112811403341e-01 -1.4060596507640413e+00 1.5637765995652726e+00 6.2445705430913434e-01 1.5637765995652726e+00 1.0457303188620879e+00  1.7775007860411116e+00 1.5331446073631343e+00 2.9701870575500089e-01 1.5331446073631345e+00 -9.2843605500580972e-01 1.6763303370063687e+00 2.9701870575500083e-01 1.6763303370063687e+00 9.5706885587506008e-01  6.3002514455471104e-01 1.7800013125707206e+00 -2.9659327671167540e-01 1.7800013125707206e+00 -9.2405343130472661e-02 1.7539115215753018e+00 -2.9659327671167540e-01 1.7539115215753018e+00 1.0984304157116613e+00  -6.6240912766350774e-02 1.9450010713079033e+00 -9.5873693590588516e-01 1.9450010713079033e+00 1.4310888837663136e+00 1.5758166759471164e+00 -9.5873693590588516e-01 1.5758166759471164e+00 5.8095313953724137e-01  -8.6709683131622750e-01 1.2574749995602414e+00 -1.3406601376294114e+00 1.2574749995602410e+00 2.3440272622112506e+00 1.4199725505826488e+00 -1.3406601376294114e+00 1.4199725505826488e+00 5.0138303849389676e-01  -1.3897235746542160e+00 4.2936345095695033e-01 -1.5879205894776114e+00 4.2936345095695050e-01 2.5428418844937299e+00 9.8315842497844197e-01 -1.5879205894776116e+00 9.8315842497844197e-01 8.0550185637706584e-01  -1.1642860054687505e+00 -4.7328506910025653e-01 -1.9791006670997984e+00 -4.7328506910025653e-01 2.6286529445115958e+00 6.2377937235246905e-01 -1.9791006670997984e+00 6.2377937235246939e-01 7.6743978348779596e-01  -5.6070808699314312e-01 -1.6011237778579792e+00 -1.7042464377089548e+00 -1.6011237778579792e+00 1.9644016271313178e+00 2.0110613964760864e-02 -1.7042464377089548e+00 2.0110613964760930e-02 3.4989112301576608e-01  5.5012551328361170e-01 -2.1301157106473134e+00 -1.7974178389627422e+00 -2.1301157106473130e+00 4.7774567317188738e-01 1.0422738916511584e-01 -1.7974178389627427e+00 1.0422738916511580e-01 7.2160670760409951e-01  1.2684150607046758e+00 -9.5068266442192340e-01 -1.6292332942420387e+00 -9.5068266442192317e-01 -1.3339702579470847e+00 -5.9358950200715166e-01 -1.6292332942420382e+00 -5.9358950200715177e-01 1.1401273021661733e+00  3.0326346949748575e+00 -1.3638401491467795e+00 -1.2404017947352408e+00 -1.3638401491467793e+00 -1.8163605776263452e+00 -9.0428990567295497e-01 -1.2404017947352401e+00 -9.0428990567295497e-01 1.0373434773601600e+00  5.3237364712898030e+00 -8.7121953734209845e-01 -1.4889731533794395e+00 -8.7121953734209823e-01 -2.3339186794954698e+00 -2.0503513162096794e+00 -1.4889731533794390e+00 -2.0503513162096794e+00 2.7708874559375034e+00  5.3011124541092727e+00 -6.4926077362915635e-01 -1.3280155758172125e+00 -6.4926077362915635e-01 -9.0722596046952098e-01 -3.1807314819369115e+00 -1.3280155758172125e+00 -3.1807314819369115e+00 1.6877598090731163e+00  4.2371975931013992e+00 -1.7231319784183632e-01 -7.3026337785184059e-01 -1.7231319784183652e-01 -8.4903919706049613e-01 -2.7242617801982560e+00 -7.3026337785184059e-01 -2.7242617801982556e+00 4.4407131788413484e-01  3.5091037157161669e+00 -3.3042922822994786e-02 -5.8177804053900273e-01 -3.3042922822994786e-02 -1.8355531243799610e+00 -1.8506838509898329e+00 -5.8177804053900273e-01 -1.8506838509898329e+00 1.0192532278192148e+00  3.1396337869707795e+00 -6.4572033871337475e-01 -9.8430173106380237e-01 -6.4572033871337475e-01 -2.4633597780800636e+00 -1.1734095154841375e+00 -9.8430173106380237e-01 -1.1734095154841377e+00 2.5417551262004214e+00  2.4485663855475703e+00 -6.9081249676189427e-01 -7.8921924342144378e-01 -6.9081249676189427e-01 -2.5268928035607416e+00 -5.5735421814819963e-01 -7.8921924342144378e-01 -5.5735421814819963e-01 2.6591875574611721e+00  1.5818954460443351e+00 -1.0166184417590951e+00 -1.3909533450414571e-01 -1.0166184417590949e+00 -1.9063434334416851e+00 8.1909801219613554e-01 -1.3909533450414571e-01 8.1909801219613554e-01 1.6829235883741556e+00  1.5952258315347900e+00 -1.5059473048625662e+00 -5.7712037844172967e-03 -1.5059473048625664e+00 -1.1800329222365595e+00 2.3828324021195804e+00 -5.7712037844172967e-03 2.3828324021195804e+00 2.4560191092619879e+00  1.8097070088644980e+00 -1.2560195695000889e+00 -2.2427576300578084e-01 -1.2560195695000886e+00 -1.1890993852909757e+00 3.1354328261746405e+00 -2.2427576300578075e-01 3.1354328261746414e+00 3.6774095372362083e+00  6.2268755853099100e-01 1.8433788822577923e-01 -2.9018992219618173e-01 1.8433788822577923e-01 6.2634971780446500e-03 3.4859491712597981e+00 -2.9018992219618173e-01 3.4859491712597981e+00 1.7007569880870490e+00  6.0333861569518354e-01 6.1878870491252735e-02 2.0841943586733200e-01 6.1878870491252694e-02 -1.4603794997909028e-01 3.1993592961139106e+00 2.0841943586733200e-01 3.1993592961139106e+00 1.3085396244974397e+00  7.0809621314511373e-01 -1.7262419067966644e-01 8.5921506004913317e-01 -1.7262419067966639e-01 -2.2699815353378902e-01 3.0665995001215274e+00 8.5921506004913317e-01 3.0665995001215274e+00 1.3122795761517261e+00  8.1646127185370387e-01 -4.2785213435513841e-01 1.2711456772460434e+00 -4.2785213435513841e-01 -5.1362103164501648e-02 2.7433170413632788e+00 1.2711456772460441e+00 2.7433170413632788e+00 9.8974431587244627e-01  6.4803088734514613e-01 -3.5128572768273003e-01 1.7693880523887195e+00 -3.5128572768273003e-01 -5.3534432951651938e-02 2.3945666873383034e+00 1.7693880523887195e+00 2.3945666873383034e+00 8.6670123165996549e-01  1.0747669815682757e+00 -2.3951739341545769e-01 1.6022982450246448e+00 -2.3951739341545769e-01 1.6036184305212689e-01 1.7965436259445926e+00 1.6022982450246452e+00 1.7965436259445926e+00 -4.7192087057525023e-01  1.1670410380962286e+00 -3.9038318153218921e-01 1.8891560598699466e+00 -3.9038318153218921e-01 2.7978761436730631e-01 1.0515966437008757e+00 1.8891560598699475e+00 1.0515966437008757e+00 -6.8355836553930760e-01  7.2009580930260031e-01 -7.5711848913273216e-01 2.4885069503180639e+00 -7.5711848913273216e-01 7.0618062343830323e-01 7.8562455607236292e-01 2.4885069503180639e+00 7.8562455607236303e-01 7.3187657768790201e-02  7.9573488849563268e-01 -8.1590406956593520e-01 2.2599505282726433e+00 -8.1590406956593520e-01 1.0731471270391595e+00 6.9544343965272606e-02 2.2599505282726433e+00 6.9544343965272509e-02 -7.2598064859158506e-01  5.1648790780198262e-01 -8.4850000536812598e-01 2.2731000258272234e+00 -8.4850000536812598e-01 1.4518653127349004e+00 -2.9100355397677896e-01 2.2731000258272234e+00 -2.9100355397677907e-01 -7.8820807128008097e-01  -5.4242447728744841e-02 -5.1200783202376976e-01 2.0928684178660961e+00 -5.1200783202376976e-01 1.6814016937876257e+00 -9.1006347769702955e-01 2.0928684178660961e+00 -9.1006347769702955e-01 -4.2574699386712844e-01  -2.0393839794493721e-01 1.0589220972138003e-01 2.0372373732461848e+00 1.0589220972138003e-01 1.4727720901623702e+00 -1.2662453606175055e+00 2.0372373732461848e+00 -1.2662453606175055e+00 1.7147131561384879e-01  3.1192436025266179e-01 1.7016941778598041e-01 1.3261118468299538e+00 1.7016941778598038e-01 1.5582519028167869e+00 -1.4133934890113828e+00 1.3261118468299538e+00 -1.4133934890113828e+00 -9.4247345678692407e-01  3.8808563375166227e-01 -6.8127312882944580e-01 -1.7100943913056482e-01 -6.8127312882944580e-01 1.8725648313354628e+00 -1.8404727392987739e+00 -1.7100943913056468e-01 -1.8404727392987739e+00 -1.5581633528252972e+00  -1.4563932503305288e-01 5.3888790615655313e-01 9.3668650108894924e-01 5.3888790615655313e-01 1.2105244894304112e+00 -1.7695287966321289e+00 9.3668650108894924e-01 -1.7695287966321289e+00 -5.6391390571260049e-03  2.1380080924636551e+00 -8.7758332218175594e-01 8.2545339935967210e-01 -8.7758332218175605e-01 -1.8261479819980801e+00 8.0546767419488186e-01 8.2545339935967244e-01 8.0546767419488186e-01 1.4052456416531469e+00  2.0819100343922483e+00 -9.1090862895587277e-01 1.0675427850994286e+00 -9.1090862895587232e-01 -2.0412276490839885e+00 1.0318792631280861e-01 1.0675427850994286e+00 1.0318792631280861e-01 1.5999937114384022e+00  2.7486314162719787e+00 -1.4224268281647796e+00 1.1188393933147998e+00 -1.4224268281647798e+00 -2.3057503971565798e+00 -7.9520133321642969e-02 1.1188393933147998e+00 -7.9520133321642927e-02 2.3692925814620875e+00  3.6226340555434988e+00 -1.4508634423699949e+00 1.2218260464193322e+00 -1.4508634423699949e+00 -2.5331134599938818e+00 3.5069227488068849e-01 1.2218260464193322e+00 3.5069227488068844e-01 2.9638032072958813e+00  3.3295870360929980e+00 -1.2251163545001078e+00 1.1864509578698554e+00 -1.2251163545001080e+00 -2.5076505118918249e+00 6.2559780365749118e-01 1.1864509578698552e+00 6.2559780365749118e-01 2.9410113793239541e+00  3.0046619730686577e+00 -9.5796015598776829e-01 9.3100868208438003e-01 -9.5796015598776829e-01 -2.6177199718056738e+00 4.8567759723004245e-01 9.3100868208437970e-01 4.8567759723004245e-01 2.9592392739389020e+00  2.3728821531762150e+00 -7.8918884105826770e-01 7.4693728399456083e-01 -7.8918884105826770e-01 -2.5812886614140975e+00 2.2819696152317967e-01 7.4693728399456083e-01 2.2819696152317967e-01 3.1029884239210457e+00  1.6803667003973342e+00 -7.4144969177138154e-01 1.3273647950702419e+00 -7.4144969177138154e-01 -2.3552982889822944e+00 -1.8102845834276390e-01 1.3273647950702419e+00 -1.8102845834276396e-01 2.9801645424477150e+00  9.9235940326793504e-01 -4.6866147595161534e-01 1.4439385963870679e+00 -4.6866147595161534e-01 -1.0634009386590197e+00 -1.4400681017214703e-01 1.4439385963870679e+00 -1.4400681017214703e-01 3.7661662308056482e-01  3.7080635895235461e+00 1.0660796933932892e+00 -7.0315166956855601e-01 1.0660796933932895e+00 -2.1905358430661002e+00 -1.4958188656206015e+00 -7.0315166956855601e-01 -1.4958188656206017e+00 1.4261986800242674e+00  3.2660156366837505e+00 2.7067710550878439e+00 -2.6007560708285682e-01 2.7067710550878430e+00 -1.3059582116765474e+00 -1.6252712213821123e+00 -2.6007560708285682e-01 -1.6252712213821121e+00 1.5764998635814067e+00  1.4659884033151809e+00 3.2086387429328362e+00 2.9102779212095120e-01 3.2086387429328362e+00 -9.7326602663980036e-02 -1.5574145160281165e+00 2.9102779212095109e-01 -1.5574145160281165e+00 1.9454198283515698e+00  -3.8789073781017464e-01 3.1478867141181119e+00 6.4547657016104798e-01 3.1478867141181119e+00 1.8271041081804955e+00 -1.4880740223933764e+00 6.4547657016104798e-01 -1.4880740223933764e+00 1.9349819843554152e+00  -1.6574255459445590e+00 1.9519472170943479e+00 1.0264781503202063e+00 1.9519472170943479e+00 2.4079315889912816e+00 -1.4117802742510897e+00 1.0264781503202063e+00 -1.4117802742510897e+00 2.1279787015726983e+00  -1.9679002255202456e+00 7.2340669696729809e-01 1.4708656457934994e+00 7.2340669696729809e-01 2.9993090957445534e+00 -1.0334346954251323e+00 1.4708656457934994e+00 -1.0334346954251323e+00 1.6385624070065181e+00  -1.5912154583892897e+00 -7.5069860849623715e-01 1.7698074802265076e+00 -7.5069860849623715e-01 2.4350448003178924e+00 -6.0223150118768032e-01 1.7698074802265076e+00 -6.0223150118768043e-01 1.1909534240830726e+00  -1.5489272207423479e+00 -1.1446640203180314e+00 1.5011195695942650e+00 -1.1446640203180314e+00 1.7714578633010993e+00 -4.8664774158036056e-01 1.5011195695942650e+00 -4.86647