<?xml version="1.0"?>
<VTKFile type="UnstructuredGrid"  version="0.1"  >
<UnstructuredGrid>
<Piece  NumberOfPoints="1268" NumberOfCells="4847">
<Points>
<DataArray  type="Float64"  NumberOfComponents="3"  format="ascii">1.994716987487452 0.01317707561264319 -1.202466945460223e-11  1.374072606111497 -0.08614134488653273 -5.388997575085332  -1.285941478930618 0.1916557790035214 -5.691288663606836  -1.59032616235459 -0.4515196446136259 1.626303258728257e-17  0.4950030257755884 2.521650519233041 -5.495391852657774  -0.4107718940653654 -2.429115409112172 -5.58531208084276  -0.9314707163843408 -3.006923447963563 4.87890977618477e-17  1.161824811771535 2.948440156756841 -3.391384395534658e-14  2.146749234505421 0.002696741478414759 -0.5615078450779066  2.330988047973839 -0.000873250973709995 -1.113141311680313  2.540713632977715 -0.1384292375506191 -1.637427654548237  2.645241452520652 -0.2872312815961211 -2.18637082393926  2.504842461151312 -0.2752146673621067 -2.746850782899552  2.287876352721185 -0.2088259978706829 -3.283011632728322  2.137771360922677 -0.2093380261300688 -3.844996501809416  1.970142554575494 -0.2193701374385486 -4.401638277082749  1.701580801829277 -0.1696632515169769 -4.915066532844666  1.398049690886424 0.4419377546899956 -5.387643705321969  1.183972204621215 0.9208338616597355 -5.413149504812257  0.7621482426349403 1.234356207118232 -5.461782499987256  0.2539805730796886 1.370727420898931 -5.519751404145364  -0.2689415860383004 1.319053689498898 -5.578906487138381  -0.7357170559581984 1.076180709179107 -5.631191713357971  -1.086003096318238 0.6812820615514149 -5.669884670156524  -1.65706961757681 -0.5275128747266272 -0.6240725009925172  -1.829082870387909 -0.8347372240299333 -1.153553189134448  -2.030635262011336 -1.097965926806997 -1.693320688638939  -2.148557703924963 -0.9683820133813712 -2.295450526931833  -2.119047321408695 -0.7521727279271558 -2.890676896601294  -1.972500555455803 -0.7106310836492745 -3.509380855831461  -1.885028119342598 -0.4902108162504233 -4.093718100793141  -1.832050776792238 -0.1313823297003599 -4.617858136599065  -1.636180550340053 0.1151199882480144 -5.165527944859976  -1.540434086810702 0.1014447694855235 -7.644826989049428e-17  -1.339902801239663 0.6191128040412099 2.218327606354497e-17  -0.9949589579071262 1.053322092476122 2.12059320661159e-17  -0.5243975458638882 1.346285776146202 7.754217898549941e-16  0.01399251627036286 1.481823287560149 3.252316763596149e-17  0.5696211504784076 1.47677978548424 -7.207855520904863e-17  1.105448032340458 1.331487337928338 1.951563910473908e-16  1.561367740818086 1.018090979386763 -2.179459114756194e-16  1.860006992193919 0.551530302300456 1.369433074745588e-16  -0.152869286718376 2.506583809965366 -5.568804938302105  -0.7781210310064858 2.335338381675429 -5.639249366957451  -1.340550096787874 2.011723800088065 -5.702178028336585  -1.803922993566052 1.555830170950866 -5.753534898075912  -2.144678763029901 1.000979069722826 -5.790734833138769  -2.346903237737564 0.3811866585909049 -5.812061421922149  -2.406990243842066 -0.2684488461825228 -5.817196438260218  -2.318433628103212 -0.9144163570965761 -5.805488779558074  -2.059391262210163 -1.511004864267824 -5.774580158166454  -1.615755841275718 -1.983465489741105 -5.72306417450185  -1.043145925381342 -2.287058241276404 -5.657361969815248  -0.6986882361605687 -2.420627649803484 -5.024556445072709  -0.8272574030199392 -2.685291244074475 -4.476216325063944  -0.8113210073272845 -3.118860027310894 -4.01596683617901  -0.7618552434953355 -3.481598098596065 -3.504026669625047  -0.7509882165597778 -3.609083979854663 -2.886473298216772  -0.7986167670519319 -3.732483084086931 -2.268445488219849  -0.8276969497603353 -3.810997815301134 -1.64593496945388  -0.7425506523451623 -3.557242155569485 -1.078322423839125  -0.7147449622328144 -3.21189056194362 -0.5511080601316157  -1.482234509376526 -2.778582553401298 -5.854479658363816e-16  -1.970737176894139 -2.437284655419533 2.764697292186607e-16  -2.362818572203899 -1.988727212877528 2.439101268600111e-16  -2.642390785384022 -1.462244173776716 5.051059276813266e-16  -2.812149102113852 -0.89052423419162 2.276851973687203e-16  -2.877946727920729 -0.2976446157883296 -1.219909928720168e-16  -2.842947107925845 0.2978601752284433 4.065446096494693e-17  -2.70313036896374 0.8776122116387211 -5.041496169361013e-16  -2.452324348076021 1.418519584933707 4.379274460317988e-16  -2.098265626135573 1.898294456130726 1.951060033519619e-16  -1.658391347368763 2.301023318502569 -1.789574489620802e-16  -1.154148079923361 2.619757341302747 -2.081203863085907e-15  -0.6042202207747882 2.851073703499478 -3.577841418755692e-16  -0.02416138323675775 2.990516581461941 4.065982498622179e-16  0.5710641261211448 3.028216945076794 -1.46882551317968e-16  0.6414151130412097 2.696325287154043 -4.983333021490838  0.771852374565919 2.778456367279237 -4.445188759107248  0.8805845204306011 2.73078881179073 -3.897720120696569  0.9481597620953167 2.69798349057175 -3.343104559074628  0.9815370707090804 2.778214865778854 -2.789250505759619  1.013475345489448 2.861817704396183 -2.235671116027784  1.055849759321274 2.898356228459238 -1.677594140621302  1.093646323460014 2.92793989028903 -1.118725590781912  1.124098871622056 2.957526991478201 -0.5594169689370629  0.2477015793419729 -2.415655802610486 -5.510682951113449  0.8844491790088972 -2.245867158009595 -5.438931443942415  1.464891069119211 -1.932330028996181 -5.373934600293736  1.955087092649627 -1.489613175355717 -5.319502697776375  2.318355026965356 -0.937054784961175 -5.279744576064058  2.524994411863564 -0.307899182343253 -5.257941630215678  2.574632820450045 0.3531084349228537 -5.254020561031156  2.465743861849647 1.006614152640354 -5.268052816559671  2.183897076015212 1.604484044160622 -5.301550147358176  1.722560240631265 2.07491696755195 -5.35506775502591  1.13806318635062 2.378906583716481 -5.422118662603529  1.742182153284979 2.73179858498085 5.854691697147836e-16  2.262480931380501 2.395264875892136 -2.601681534737615e-16  2.698000706832733 1.954727370266727 -3.903113804560263e-16  3.021530388777258 1.426473918441798 1.707421408502106e-16  3.223363606607101 0.8405687193648443 -2.844806418042028e-16  3.305434793487241 0.2261994274297442 -4.472186606099012e-16  3.269241566985055 -0.3926051469820059 3.171555149681837e-16  3.113478077610213 -0.9924495549400153 3.510830505762065e-16  2.840400132149515 -1.548806515270482 -1.707368614952523e-16  2.466120284856568 -2.042983582774378 9.732831365154574e-17  2.008125599488538 -2.460814027017948 -3.577575055983979e-16  1.482521285196868 -2.789563899556613 -4.886146623064541e-17  0.9057866143556688 -3.01678997208197 -2.439392613813594e-16  0.2964958724913082 -3.130681163554852 3.414395345104792e-16  -0.32338307292875 -3.126978161260848 2.926910878106614e-16  -1.29067345658392 -0.3506098753383553 -5.690421630247788  -1.068897680254163 -0.8451623229646739 -5.663999894259847  -0.6782440885714781 -1.219621806060448 -5.6187489875115  -0.168757542531344 -1.390394566692369 -5.560546895724229  0.3611301401510615 -1.294122251639114 -5.500717901478111  0.8191548613516448 -1.005201308695582 -5.449538098373106  1.16817203978903 -0.5892762115769014 -5.411042670828763  1.960898302630318 -0.551652302616722 -8.131516293641286e-17  1.751009740180289 -1.077278642631261 7.445724005953314e-16  1.394016468000002 -1.516729095803803 1.136104663605282e-15  0.9227767039454898 -1.830301465573364 3.434443593283319e-16  0.3780412068884804 -1.984007749105097 8.617772484356591e-16  -0.1885780664025548 -1.977994130030172 2.357202029695971e-16  -0.7327557451871473 -1.821291124380143 1.942410916395698e-17  -1.191068596016128 -1.491774666596192 2.975009434367945e-16  -1.480405544894888 -1.006855825633415 6.954512630084263e-16  -1.812414118534285 0.2561131097252937 -2.664867827914479  2.421751940242729 0.6298287624476981 -1.933377861698098  0.7556418177061754 1.42269463362527 -4.617654324361507  0.003134751711410342 1.574821943356493 -0.9318675177876981  1.015098001669947 1.51699057942374 -0.9441494884276413  0.6193243625380082 1.764115149411371 -1.862230514405671  -0.4757031201037318 1.549728101933577 -1.958273018773558  0.1126459993007786 1.698838152590054 -2.957602797129454  -0.3405660022430232 1.569615851499001 -4.678135257405353  1.818199099779932 0.7365610114574719 -3.763003518505052  -0.9541815370276669 1.23451227632913 -2.875526912859068  -1.269464226480212 1.016489154450913 -4.672047638709048  1.301562892980348 1.557566760682666 -2.802482532053872  -0.7813756340336595 1.414221906310649 -3.725761628685261  -1.58370798409762 0.5643609111372817 -3.581008460136619  -0.988817348255397 1.158392548936659 -1.014254585170146  -1.607700527190565 0.2800106654898483 -1.030081240453645  -1.388203055800784 0.7951310659851955 -1.943712885648593  0.8261955720421881 1.570157055202129 -3.620947225245673  1.681455131778566 1.410849015379531 -1.876189895849114  1.878739160554727 0.943024132521903 -0.9866418074548234  2.103426639579445 1.000735947836943 -2.593434794762663  1.62623803052506 0.6468498306152269 -4.727220189271843  -1.882943490361709 -0.1546739965127431 -1.761716647663214  0.05868355051519467 1.656538949473053 -3.863342338366238  2.465845305360337 0.2632819454094029 -2.663569745038379  1.994842599423799 0.5019775153043848 -0.4779055074204815  2.1671824130763 0.4980244878585698 -1.027636182799239  1.710213566460811 0.9718796190568162 -0.4957578884333736  1.845584590132108 0.2253887364997403 -4.583879812097906  1.579035044615276 0.2924902970866011 -5.101748935835201  1.409777182251665 0.7868327264427526 -5.07202467441607  -1.039178737375989 1.089168173550246 -5.170746090958521  -1.377687418630729 0.6683636420802941 -5.233117919580046  -1.641402128985454 0.4875654733502939 -4.648722230221863  -1.765467255797776 -0.2695484060062747 -1.079683539430899  -1.617858736076732 -0.08318463488274264 -0.5123563299218489  -1.474019211051276 0.4496529111656123 -0.5150171376928306  2.417677350191343 0.3274903893149403 -1.506992657970159 
[...]
<PointData  Vectors="displacement"> 
<DataArray  type="Float64"  Name="displacement"  NumberOfComponents="3" format="ascii">0.0000000000000000e+00 0.0000000000000000e+00 0.0000000000000000e+00  3.6489619691489455e-01 3.0621568601118720e-01 -5.2488941229726715e-01  -4.7014005100341000e-01 -1.3362465649356989e-01 -5.2436056666098074e-01  0.0000000000000000e+00 0.0000000000000000e+00 0.0000000000000000e+00  -4.4201500728137505e-01 3.3340593734164242e-01 -3.7533035845946655e-01  3.0442774740309070e-01 -2.6056542752185285e-01 -5.5333762272308418e-01  0.0000000000000000e+00 0.0000000000000000e+00 0.0000000000000000e+00  0.0000000000000000e+00 0.0000000000000000e+00 0.0000000000000000e+00  2.7998186230294442e-01 6.2316218624724418e-02 -2.7703200874726251e-02  4.3233807144657094e-01 1.2935210793425669e-01 -6.1561034544436816e-02  5.0212655432216136e-01 1.4946442936044754e-01 -1.2691653574765388e-01  5.4205721649934568e-01 1.6645590153714285e-01 -2.2299935863544193e-01  5.9285518474571264e-01 2.1528239744411254e-01 -3.3325280988871014e-01  6.0920538195591734e-01 2.6975641494730035e-01 -4.0240291344713719e-01  5.7117554442723317e-01 2.9219616764909273e-01 -4.3393179638301721e-01  5.0304141686237702e-01 2.9895947321078592e-01 -4.6409700179844648e-01  4.3500961189834025e-01 3.0846891591667219e-01 -4.9960153500206383e-01  1.8909782555799376e-01 4.4725024455337986e-01 -4.8860324875919153e-01  2.1803731013498944e-03 5.1530706683021510e-01 -4.6943296531963702e-01  -1.7310455351449780e-01 5.2804299631569462e-01 -4.5295266175775412e-01  -3.2799360582568793e-01 4.6849854237279265e-01 -4.6600865734786323e-01  -4.5015697317496856e-01 3.5913857904756236e-01 -4.7771925592406289e-01  -5.1928910670998341e-01 2.1136732928407573e-01 -4.9683764973126615e-01  -5.3243339284910851e-01 4.1297032840532336e-02 -5.1267522072319283e-01  -3.2764144708492693e-01 -3.1611086243237767e-02 -3.5089151533898709e-02  -4.5738580468517637e-01 -1.2540657045497960e-01 -5.0147566435186239e-02  -4.7647332990628799e-01 -2.2273274672253496e-01 -1.1178267715204861e-01  -5.2333898247334365e-01 -2.3895119002339832e-01 -2.0927915896938620e-01  -5.6780732350270702e-01 -2.3951034006586555e-01 -2.9780575810771309e-01  -5.6655661751664999e-01 -2.7982154233087986e-01 -3.6697676712961180e-01  -5.5673573201917892e-01 -2.7261870528352827e-01 -3.9710861002923636e-01  -5.4498453851548789e-01 -2.1696275982285745e-01 -4.2189733614811337e-01  -5.1421679337461890e-01 -1.7473702874201363e-01 -4.7413084593142457e-01  0.0000000000000000e+00 0.0000000000000000e+00 0.0000000000000000e+00  0.0000000000000000e+00 0.0000000000000000e+00 0.0000000000000000e+00  0.0000000000000000e+00 0.0000000000000000e+00 0.0000000000000000e+00  0.0000000000000000e+00 0.0000000000000000e+00 0.0000000000000000e+00  0.0000000000000000e+00 0.0000000000000000e+00 0.0000000000000000e+00  0.0000000000000000e+00 0.0000000000000000e+00 0.0000000000000000e+00  0.0000000000000000e+00 0.0000000000000000e+00 0.0000000000000000e+00  0.0000000000000000e+00 0.0000000000000000e+00 0.0000000000000000e+00  0.0000000000000000e+00 0.0000000000000000e+00 0.0000000000000000e+00  -4.9434570995800081e-01 2.3947663467042252e-01 -3.8224038321259901e-01  -5.2450656673281815e-01 1.3213844677882758e-01 -3.8818803835825133e-01  -5.2557860815582047e-01 2.3039081498866971e-02 -4.0022893620982553e-01  -4.9129952983013719e-01 -8.6821644017033350e-02 -4.0680299569520129e-01  -4.3370262557558498e-01 -1.9797660061499509e-01 -4.1496932068591219e-01  -3.4050910484581609e-01 -2.9325058779537738e-01 -4.2591858606132021e-01  -2.2657832729735977e-01 -3.5869424502547737e-01 -4.3144771583431879e-01  -9.9268639069063899e-02 -3.9153795391488033e-01 -4.3789568013972990e-01  3.4688520233008217e-02 -3.9317279790777820e-01 -4.5985820435456592e-01  1.1634951184932796e-01 -3.6511826566693079e-01 -4.8118072140345464e-01  2.0719228875882925e-01 -3.1623537312682792e-01 -5.1072158040334059e-01  2.3204743353382284e-01 -4.1216186781989644e-01 -5.1564118655321689e-01  2.0369676263134512e-01 -4.7706350142964959e-01 -4.5081223493882472e-01  2.1100377055604977e-01 -4.6462306510849238e-01 -3.6267771877828370e-01  2.0918945402318789e-01 -4.3317872257345497e-01 -2.9716229217380657e-01  1.9374858618650317e-01 -4.1552980163721909e-01 -2.4833273403120340e-01  1.5786422480566534e-01 -3.6860560926986630e-01 -1.7756005132111136e-01  1.4150798038014423e-01 -3.0692154544778066e-01 -1.3014505470394547e-01  1.0367138804189505e-01 -2.6598934544927422e-01 -8.5814648674768693e-02  5.1635744262320461e-02 -1.7179845238540822e-01 -2.0737533351727538e-02  0.0000000000000000e+00 0.0000000000000000e+00 0.0000000000000000e+00  0.0000000000000000e+00 0.0000000000000000e+00 0.0000000000000000e+00  0.0000000000000000e+00 0.0000000000000000e+00 0.0000000000000000e+00  0.0000000000000000e+00 0.0000000000000000e+00 0.0000000000000000e+00  0.0000000000000000e+00 0.0000000000000000e+00 0.0000000000000000e+00  0.0000000000000000e+00 0.0000000000000000e+00 0.0000000000000000e+00  0.0000000000000000e+00 0.0000000000000000e+00 0.0000000000000000e+00  0.0000000000000000e+00 0.0000000000000000e+00 0.0000000000000000e+00  0.0000000000000000e+00 0.0000000000000000e+00 0.0000000000000000e+00  0.0000000000000000e+00 0.0000000000000000e+00 0.0000000000000000e+00  0.0000000000000000e+00 0.0000000000000000e+00 0.0000000000000000e+00  0.0000000000000000e+00 0.0000000000000000e+00 0.0000000000000000e+00  0.0000000000000000e+00 0.0000000000000000e+00 0.0000000000000000e+00  0.0000000000000000e+00 0.0000000000000000e+00 0.0000000000000000e+00  0.0000000000000000e+00 0.0000000000000000e+00 0.0000000000000000e+00  -4.1388862227747514e-01 3.7185479768084834e-01 -3.5547089553138550e-01  -3.6678803819750844e-01 4.0986999955974551e-01 -3.3404522062119502e-01  -2.9583960301242002e-01 4.4505683365846566e-01 -3.0273967844776278e-01  -2.2194653523282729e-01 4.6227705518818296e-01 -2.5109049703804259e-01  -1.7733407937249712e-01 4.4265456871596137e-01 -1.9067713884651757e-01  -1.3844303715396222e-01 3.9459649874979230e-01 -1.2626635182749349e-01  -1.0528230695234599e-01 3.2469522685110930e-01 -6.5341932043517487e-02  -7.8851557559273533e-02 2.2242699489959711e-01 -6.6975711658956603e-03  -4.1680495393190312e-02 1.1085193872208679e-01 2.9799365439128277e-02  3.9269909774083994e-01 -1.7915123101520342e-01 -5.7794790192997825e-01  4.6291145335899270e-01 -6.8317626094888007e-02 -5.7874627487909314e-01  4.8403788145369475e-01 7.3096788324432060e-02 -5.6388626328992042e-01  4.6001205200315920e-01 2.2187559331992421e-01 -5.2699025295510393e-01  3.7281675465529507e-01 3.5475148470551016e-01 -4.8785994855868337e-01  2.5176243329605835e-01 4.5490918119880247e-01 -4.5032211970106123e-01  1.1061815289543242e-01 5.1599442365888093e-01 -4.1861234223983912e-01  -4.0434393798988638e-02 5.4472701779526023e-01 -4.0330041471258249e-01  -1.7200859655534920e-01 5.1942738222147600e-01 -3.8435954835289154e-01  -2.8061233232717525e-01 4.8090049511115401e-01 -3.7555182385993191e-01  -3.6255420924061643e-01 4.1552181163318996e-01 -3.6981593054655376e-01  0.0000000000000000e+00 0.0000000000000000e+00 0.0000000000000000e+00  0.0000000000000000e+00 0.0000000000000000e+00 0.0000000000000000e+00  0.0000000000000000e+00 0.0000000000000000e+00 0.0000000000000000e+00  0.0000000000000000e+00 0.0000000000000000e+00 0.0000000000000000e+00  0.0000000000000000e+00 0.0000000000000000e+00 0.0000000000000000e+00  0.0000000000000000e+00 0.0000000000000000e+00 0.0000000000000000e+00  0.0000000000000000e+00 0.0000000000000000e+00 0.0000000000000000e+00  0.0000000000000000e+00 0.0000000000000000e+00 0.0000000000000000e+00  0.0000000000000000e+00 0.0000000000000000e+00 0.0000000000000000e+00  0.0000000000000000e+00 0.0000000000000000e+00 0.0000000000000000e+00  0.0000000000000000e+00 0.0000000000000000e+00 0.0000000000000000e+00  0.0000000000000000e+00 0.0000000000000000e+00 0.0000000000000000e+00  0.0000000000000000e+00 0.0000000000000000e+00 0.0000000000000000e+00  0.0000000000000000e+00 0.0000000000000000e+00 0.0000000000000000e+00  0.0000000000000000e+00 0.0000000000000000e+00 0.0000000000000000e+00  -3.4529294909928043e-01 -2.9124933995832880e-01 -5.3004214759593060e-01  -1.6791652001962767e-01 -4.0101792999580954e-01 -5.3792827828490919e-01  4.4343530072971309e-02 -4.3819303289351613e-01 -5.4160781500420674e-01  2.4986806121893923e-01 -3.8735763081051794e-01 -5.5908109973128750e-01  4.1321924371095370e-01 -2.7933031118902124e-01 -5.6869702645742015e-01  4.9499686128326137e-01 -9.9682322084926986e-02 -5.7052945959835988e-01  4.7550360609764619e-01 1.1585283307741212e-01 -5.5508524580946683e-01  0.0000000000000000e+00 0.0000000000000000e+00 0.0000000000000000e+00  0.0000000000000000e+00 0.0000000000000000e+00 0.0000000000000000e+00  0.0000000000000000e+00 0.0000000000000000e+00 0.0000000000000000e+00  0.0000000000000000e+00 0.0000000000000000e+00 0.0000000000000000e+00  0.0000000000000000e+00 0.0000000000000000e+00 0.0000000000000000e+00  0.0000000000000000e+00 0.0000000000000000e+00 0.0000000000000000e+00  0.0000000000000000e+00 0.0000000000000000e+00 0.0000000000000000e+00  0.0000000000000000e+00 0.0000000000000000e+00 0.0000000000000000e+00  0.0000000000000000e+00 0.0000000000000000e+00 0.0000000000000000e+00  -7.0685621315354796e-01 9.6054371631906693e-02 -2.3451109146137875e-01  4.0677251876691045e-01 3.5958023290572105e-01 -1.6970644141909033e-01  -1.2870895322920881e-01 6.3281975729006779e-01 -3.8521090807935143e-01  -1.4824399707703892e-01 4.2529825951202777e-01 -7.7226899205730476e-02  5.9918801780925540e-02 4.2703487638513293e-01 -6.7923125748296592e-02  -8.8702978953503181e-02 6.1231210829900728e-01 -1.7288641356556539e-01  -4.0140761797557561e-01 5.4769010434643828e-01 -1.7745951246263295e-01  -3.0294804890719940e-01 6.6198635773185344e-01 -2.5854071734822970e-01  -4.7296296075492550e-01 4.7599516392604818e-01 -3.7628625194507392e-01  3.4672711464835088e-01 5.5508830007581378e-01 -3.8649160969159962e-01  -6.1392429143402238e-01 4.7208991350038904e-01 -2.3308342674419152e-01  -6.4975123469255580e-01 1.8848809272616990e-01 -3.8932438901458649e-01  7.9634054492888406e-02 6.5458553098103689e-01 -2.8656812253312108e-01  -5.8726859894189976e-01 4.7121133958788236e-01 -2.9258286910204850e-01  -7.3713292031172906e-01 1.4865648227526548e-01 -3.0279524770279048e-01  -3.6959393851266303e-01 3.2269228927528210e-01 -8.6217451227356856e-02  -4.7358903208723407e-01 1.1483877014512690e-01 -7.1751025643575661e-02  -6.2519263001094783e-01 3.0191122799029352e-01 -1.6021465463474735e-01  -8.1435205228710242e-02 6.8407347624782833e-01 -3.2955796172642976e-01  1.9886730413409004e-01 5.3767176651339754e-01 -1.6044512244935963e-01  2.7631078201089732e-01 3.2106662707383044e-01 -6.0825900141424256e-02  3.3560850633598804e-01 5.1711143694449058e-01 -2.8177857835267761e-01  2.3363964224689038e-01 5.1269275168709305e-01 -4.3522406980586420e-01  -6.1975871321049203e-01 1.0120904887615313e-02 -1.3060346008050050e-01  -3.4719386110182743e-01 6.2661132686566889e-01 -3.1362407265718140e-01  5.0443235588892810e-01 3.5333558160954320e-01 -3.0904991395081743e-01  2.2547710703579577e-01 1.2179467451961419e-01 -3.2546832976737876e-02  3.6309045152227409e-01 2.3090603432185153e-01 -5.7803533385214864e-02  1.7270442278082346e-01 1.9586496153816499e-01 -3.5980369910282320e-02  3.8116354296411137e-01 4.2200279448042266e-01 -4.5058249196948963e-01  2.8641334373102278e-01 4.2679105421904456e-01 -4.8170137478300068e-01  1.2668561137789588e-01 5.2182986765266737e-01 -4.5085098225996006e-01  -5.9224698767641970e-01 1.9579961227903547e-01 -4.4590636375775633e-01  -5.8361276193307454e-01 1.6796811411967552e-02 -4.6577579353717580e-01  -6.3859806498227700e-01 -1.6665141056697762e-02 -4.0321014587692361e-01  -4.8790822223585800e-01 7.6677752835218086e-04 -6.6975744154451525e-02  -2.8278502583537635e-01 3.0837709782184239e-02 -3.9040848267074893e-02  -2.6669446238758815e-01 9.6047233870590429e-02 -4.0771795894994724e-02  4.3815969752982648e-01 2.5079374662756315e-01 -1.0544617820857624e-01  4.7558280467770142e-01 2.6532050379656658e-01 -1.9218015147768600e-01  3.5774154902898991e-01 3.5628842958473572e-01 -1.0071653167998870e-01  5.2789154218331191e-01 2.5912430568100370e-01 -2.7061751949582324e-01  5.6599784440689305e-01 3.2151588997766495e-01 -3.6247215523569820e-01  4.4383453194333611e-01 3.6049431465860143e-01 -2.3791050155390459e-01  5.0419278443705207e-01 4.2733898338655768e-01 -3.9905979972533745e-01  4.3641455711371124e-01 4.3826839151637204e-01 -4.2061991951885297e-01  4.6607419074567219e-01 4.6848407124452363e-01 -3.7525465360191557e-01  2.9054548078754960e-01 5.3974931852999486e-01 -4.0455365812928551e-01  -5.8428703706472643e-02 5.8655444252111433e-01 -4.2378826547890686e-01  -2.3226695304292072e-01 5.7203003061088975e-01 -4.1961108316038648e-01  5.5289412419546678e-02 5.9829898616021426e-01 -4.1349487021362041e-01  -4.0141657090859262e-01 4.8433887465949066e-01 -4.2121021244309026e-01  -5.2224281096312586e-01 3.5181666296125463e-01 -4.3128510366873063e-01  -3.1377770700433261e-01 5.8123493063919973e-01 -3.8121289109044260e-01  -5.8864907881563633e-01 3.4363364770685018e-01 -3.8110018277049063e-01  -5.9577880274326389e-01 -1.1522080537738495e-01 -1.5801780469532914e-01  -5.4594301948422952e-01 -6.4719236315529560e-02 -8.9371030092155648e-02  -5.6947938027281964e-01 7.4664014386704475e-02 -9.8179366974662882e-02  -6.7293187453637560e-01 -9.1355672753888409e-02 -3.0463702031557904e-01  -6.4003088168022548e-01 -8.4519053597338745e-02 -2.2393545832502360e-01  -6.7554039488920514e-01 5.7833923456215588e-02 -1.8306073659959826e-01  -6.8864859748315033e-01 -3.5731007768685555e-02 -3.5588819180804160e-01  -6.9528641883029729e-01 -7.2188591052479809e-02 -3.3559151815506860e-01  -7.3005415995956524e-01 1.2645673048417960e-01 -2.7552400796654403e-01  -7.0562916671517484e-01 1.7352068235075752e-01 -3.3486003565106426e-01  -2.2889049435403214e-01 1.6121745472293947e-01 -4.7722676119622769e-02  -1.7877444348173116e-01 2.1954322622030636e-01 -5.2745913855719730e-02  -4.3536289918336563e-01 2.2239513390561769e-01 -8.2201569589900630e-02  -1.0907833887786729e-01 2.4839989255869033e-01 -5.0804449303818972e-02  -4.4784901786851919e-02 2.6259607452146416e-01 -4.7137342607141530e-02  -2.6162152339991646e-01 3.8947729561497108e-01 -8.5444462473477284e-02  2.4618561742049048e-02 2.6466162748658228e-01 -4.4046018215095128e-02  9.7100492930693338e-02 2.3260497252509812e-01 -3.5831760881044263e-02  -4.7082428409403562e-02 4.3330968244701906e-01 -6.8707414833384481e-02  1.6912604673139722e-01 3.8514333610542023e-01 -6.2444194870478725e-02  -6.9951471004625843e-01 2.9585856034446123e-01 -2.2943808854139905e-01  -7.0220846928528280e-01 3.2660272660273926e-01 -2.5986701164016707e-01  -6.3562905763488409e-01 3.9778668429621583e-01 -1.9878045256471777e-01  -6.8724988930038533e-01 2.1561519916302546e-01 -1.9117814847629089e-01  -6.4514756770014237e-01 1.5664400464342026e-01 -1.4551744803352865e-01  3.1398783893359478e-01 4.5646183237438581e-01 -1.6277349753396275e-01  2.5567258669150894e-01 4.4538653546371904e-01 -9.9555152349601272e-02  2.5947786735282441e-01 5.3049128346885732e-01 -2.1519010306251832e-01  3.7059133624669965e-01 4.4111376594567731e-01 -2.2738995248436827e-01  4.2617095492156049e-01 4.4465790821054013e-01 -3.0075633714957040e-01  -2.3760314085593373e-01 6.4050944104756291e-01 -3.4883373284580532e-01  -4.1757898377574992e-01 5.6333068363779548e-01 -3.3928268344577228e-01  1.1365819343261739e-01 6.3083193006984628e-01 -3.8289235297799612e-01  1.4233560652052915e-01 6.5359143599883596e-01 -3.6136115033663080e-01  -1.0081018524222278e-01 6.6620223990515626e-01 -3.5595236981291006e-01  -2.1787098369754568e-01 6.6749607848832226e-01 -3.2076451312803161e-01  -1.3381233700588036e-01 5.3483331145553259e-01 -1.1515348937891952e-01  -5.9810115121854326e-03 5.3722624262252483e-01 -1.1290731072695941e-01  -2.7976943526398335e-01 5.0471811396465949e-01 -1.2241234940319308e-01  -2.4671264831862438e-01 5.9863267122380581e-01 -1.7594258752111269e-01  -4.0851247576907601e-01 4.4279727324973067e-01 -1.2943468714853279e-01  6.1308149345231683e-02 5.9185083914606096e-01 -1.6356402125105865e-01  1.3462465981118032e-01 5.0649804670648935e-01 -1.0821339150139937e-01  -3.6639471080965591e-01 6.2234172012452149e-01 -2.2279926523233684e-01  -1.9623367700682068e-01 6.6100458869540513e-01 -2.2919823871738987e-01  -1.0799982786920750e-01 6.8077486387540664e-01 -2.7642284202558659e-01  -1.1791267716964681e-02 6.4839574161558888e-01 -2.2461932546967436e-01  1.4109553558011190e-01 6.0402616204754778e-01 -2.2774298087889738e-01  -5.1951993304082666e-01 5.3449622052158674e-01 -2.0944287142676010e-01  -4.7548202909321791e-01 5.8940638457230987e-01 -2.4321804780130113e-01  -5.3573621538721294e-01 4.4264914237682779e-01 -1.6916726462859857e-01  -5.1394869313954217e-01 3.3073585986844906e-01 -1.2293762448515584e-01  -6.0643164990825638e-01 4.7802511855818430e-01 -2.6083798338691994e-01  -4.5945123397701493e-01 5.9257655064037595e-01 -2.7014122023648374e-01  -1.9997696816042787e-01 6.7776502007687478e-01 -2.9568225874391535e-01  7.5869040238037049e-03 6.8034379173400950e-01 -3.1471989743101614e-01  -4.7659415020226054e-01 5.6192237943269030e-01 -2.9772142416507896e-01  -3.2956958751979121e-01 6.5042308756179779e-01 -2.8643168569064303e-01  -5.3325732068739429e-01 4.8094956079711298e-01 -3.3036700350639686e-01  -6.4195690674171912e-01 3.4277924974101343e-01 -3.3437723048633167e-01  2.1779938156143891e-01 6.3455034140173217e-01 -3.4886218445159373e-01  3.6059570374226207e-01 5.5533315109117765e-01 -3.6069955960965178e-01  2.1793471331083047e-01 5.9900946009319023e-01 -2.8745899851672518e-01  -6.9357637881697154e-01 3.2385030054985114e-01 -2.8723226040606364e-01  -5.7314209250029269e-01 2.0699823034296139e-01 -1.1556601478747884e-01  6.9056589563600612e-02 -4.0950804160032278e-01 -2.2965286394125195e-01  -2.7056141106529946e-01 2.8902970480231271e-02 -1.0553605042699695e-02  -2.8086252314330151e-01 -3.8590665237433985e-01 -3.9730428353409675e-01  -2.6395248541643324e-01 -7.3172191102363643e-02 -2.9262657091592439e-02  -9.5185399800952600e-02 -2.1776204603657945e-01 -5.3713654595899323e-02  -4.8406393448711488e-01 -2.0772642601681632e-01 -3.8211009453147027e-01  -5.5381895645218393e-01 4.1151841742968966e-02 -3.5219491907393846e-01  -2.0123092137843210e-01 2.8163515034204795e-01 -5.3974870096487826e-02  -4.7253975404967236e-01 -2.3778049738411894e-01 -3.2052147926919095e-01  -4.0031882794823098e-01 3.6734351016923728e-01 -2.8206194448131267e-01  -2.3943860877083789e-01 -4.1554086621914743e-01 -3.3243046807573123e-01  -3.4429332719603456e-01 -3.1265800469071392e-01 -2.1679446981145079e-01  -1.5023946613631509e-01 -3.9331868116722329e-01 -2.2276818882751856e-01  -2.3246086773626268e-01 -3.0276290958020191e-01 -1.5261702198084903e-01  -4.3469072736045922e-01 -5.0936987311551329e-02 -1.1715417011234361e-01  -4.3256279474686621e-01 1.1955111690418940e-01 -1.0512228428958499e-01  -5.3933821359848630e-02 -4.5261051790520257e-01 -3.2596056465483131e-01  -5.3423059066810974e-01 -9.3332593390268517e-03 -2.2103192341215294e-01  -5.2672095963403576e-01 1.6535837789998073e-01 -2.3271430765114770e-01  5.2460967033500783e-02 -3.2411467144868722e-01 -1.4335427296913342e-01  -3.4965496228313531e-01 2.5727256185673769e-01 -9.6922267439674997e-02  -2.0493587343402633e-01 -1.8010085045567190e-01 -5.9408774590637620e-02  -1.0435387557531357e-01 -4.1372455815391251e-01 -4.0396762538682102e-01  -2.0526981937591261e-02 -3.6593607421190444e-01 -1.7973933621800847e-01  -2.3987124992757786e-01 1.3091667791497116e-01 -1.0032519565104869e-02  -2.9446503340947128e-01 3.9211629117308311e-01 -1.7396888211047787e-01  8.6778560759777967e-02 -4.5233084199815526e-01 -3.1299575152436643e-01  2.8166969393235219e-02 -4.4635956472954769e-01 -4.3529598519496476e-01  -4.5993364505122791e-01 3.0492436793348765e-01 -3.4242297475552608e-01  -1.6002202399982446e-01 1.6011725003199981e-01 3.0240690611