<?xml version="1.0"?>
<VTKFile type="UnstructuredGrid"  version="0.1"  >
<UnstructuredGrid>
<Piece  NumberOfPoints="1268" NumberOfCells="4847">
<Points>
<DataArray  type="Float64"  NumberOfComponents="3"  format="ascii">1.994716987487452 0.01317707561264319 -1.202466945460223e-11  1.374072606111497 -0.08614134488653273 -5.388997575085332  -1.285941478930618 0.1916557790035214 -5.691288663606836  -1.59032616235459 -0.4515196446136259 1.626303258728257e-17  0.4950030257755884 2.521650519233041 -5.495391852657774  -0.4107718940653654 -2.429115409112172 -5.58531208084276  -0.9314707163843408 -3.006923447963563 4.87890977618477e-17  1.161824811771535 2.948440156756841 -3.391384395534658e-14  2.146749234505421 0.002696741478414759 -0.5615078450779066  2.330988047973839 -0.000873250973709995 -1.113141311680313  2.540713632977715 -0.1384292375506191 -1.637427654548237  2.645241452520652 -0.2872312815961211 -2.18637082393926  2.504842461151312 -0.2752146673621067 -2.746850782899552  2.287876352721185 -0.2088259978706829 -3.283011632728322  2.137771360922677 -0.2093380261300688 -3.844996501809416  1.970142554575494 -0.2193701374385486 -4.401638277082749  1.701580801829277 -0.1696632515169769 -4.915066532844666  1.398049690886424 0.4419377546899956 -5.387643705321969  1.183972204621215 0.9208338616597355 -5.413149504812257  0.7621482426349403 1.234356207118232 -5.461782499987256  0.2539805730796886 1.370727420898931 -5.519751404145364  -0.2689415860383004 1.319053689498898 -5.578906487138381  -0.7357170559581984 1.076180709179107 -5.631191713357971  -1.086003096318238 0.6812820615514149 -5.669884670156524  -1.65706961757681 -0.5275128747266272 -0.6240725009925172  -1.829082870387909 -0.8347372240299333 -1.153553189134448  -2.030635262011336 -1.097965926806997 -1.693320688638939  -2.148557703924963 -0.9683820133813712 -2.295450526931833  -2.119047321408695 -0.7521727279271558 -2.890676896601294  -1.972500555455803 -0.7106310836492745 -3.509380855831461  -1.885028119342598 -0.4902108162504233 -4.093718100793141  -1.832050776792238 -0.1313823297003599 -4.617858136599065  -1.636180550340053 0.1151199882480144 -5.165527944859976  -1.540434086810702 0.1014447694855235 -7.644826989049428e-17  -1.339902801239663 0.6191128040412099 2.218327606354497e-17  -0.9949589579071262 1.053322092476122 2.12059320661159e-17  -0.5243975458638882 1.346285776146202 7.754217898549941e-16  0.01399251627036286 1.481823287560149 3.252316763596149e-17  0.5696211504784076 1.47677978548424 -7.207855520904863e-17  1.105448032340458 1.331487337928338 1.951563910473908e-16  1.561367740818086 1.018090979386763 -2.179459114756194e-16  1.860006992193919 0.551530302300456 1.369433074745588e-16  -0.152869286718376 2.506583809965366 -5.568804938302105  -0.7781210310064858 2.335338381675429 -5.639249366957451  -1.340550096787874 2.011723800088065 -5.702178028336585  -1.803922993566052 1.555830170950866 -5.753534898075912  -2.144678763029901 1.000979069722826 -5.790734833138769  -2.346903237737564 0.3811866585909049 -5.812061421922149  -2.406990243842066 -0.2684488461825228 -5.817196438260218  -2.318433628103212 -0.9144163570965761 -5.805488779558074  -2.059391262210163 -1.511004864267824 -5.774580158166454  -1.615755841275718 -1.983465489741105 -5.72306417450185  -1.043145925381342 -2.287058241276404 -5.657361969815248  -0.6986882361605687 -2.420627649803484 -5.024556445072709  -0.8272574030199392 -2.685291244074475 -4.476216325063944  -0.8113210073272845 -3.118860027310894 -4.01596683617901  -0.7618552434953355 -3.481598098596065 -3.504026669625047  -0.7509882165597778 -3.609083979854663 -2.886473298216772  -0.7986167670519319 -3.732483084086931 -2.268445488219849  -0.8276969497603353 -3.810997815301134 -1.64593496945388  -0.7425506523451623 -3.557242155569485 -1.078322423839125  -0.7147449622328144 -3.21189056194362 -0.5511080601316157  -1.482234509376526 -2.778582553401298 -5.854479658363816e-16  -1.970737176894139 -2.437284655419533 2.764697292186607e-16  -2.362818572203899 -1.988727212877528 2.439101268600111e-16  -2.642390785384022 -1.462244173776716 5.051059276813266e-16  -2.812149102113852 -0.89052423419162 2.276851973687203e-16  -2.877946727920729 -0.2976446157883296 -1.219909928720168e-16  -2.842947107925845 0.2978601752284433 4.065446096494693e-17  -2.70313036896374 0.8776122116387211 -5.041496169361013e-16  -2.452324348076021 1.418519584933707 4.379274460317988e-16  -2.098265626135573 1.898294456130726 1.951060033519619e-16  -1.658391347368763 2.301023318502569 -1.789574489620802e-16  -1.154148079923361 2.619757341302747 -2.081203863085907e-15  -0.6042202207747882 2.851073703499478 -3.577841418755692e-16  -0.02416138323675775 2.990516581461941 4.065982498622179e-16  0.5710641261211448 3.028216945076794 -1.46882551317968e-16  0.6414151130412097 2.696325287154043 -4.983333021490838  0.771852374565919 2.778456367279237 -4.445188759107248  0.8805845204306011 2.73078881179073 -3.897720120696569  0.9481597620953167 2.69798349057175 -3.343104559074628  0.9815370707090804 2.778214865778854 -2.789250505759619  1.013475345489448 2.861817704396183 -2.235671116027784  1.055849759321274 2.898356228459238 -1.677594140621302  1.093646323460014 2.92793989028903 -1.118725590781912  1.124098871622056 2.957526991478201 -0.5594169689370629  0.2477015793419729 -2.415655802610486 -5.510682951113449  0.8844491790088972 -2.245867158009595 -5.438931443942415  1.464891069119211 -1.932330028996181 -5.373934600293736  1.955087092649627 -1.489613175355717 -5.319502697776375  2.318355026965356 -0.937054784961175 -5.279744576064058  2.524994411863564 -0.307899182343253 -5.257941630215678  2.574632820450045 0.3531084349228537 -5.254020561031156  2.465743861849647 1.006614152640354 -5.268052816559671  2.183897076015212 1.604484044160622 -5.301550147358176  1.722560240631265 2.07491696755195 -5.35506775502591  1.13806318635062 2.378906583716481 -5.422118662603529  1.742182153284979 2.73179858498085 5.854691697147836e-16  2.262480931380501 2.395264875892136 -2.601681534737615e-16  2.698000706832733 1.954727370266727 -3.903113804560263e-16  3.021530388777258 1.426473918441798 1.707421408502106e-16  3.223363606607101 0.8405687193648443 -2.844806418042028e-16  3.305434793487241 0.2261994274297442 -4.472186606099012e-16  3.269241566985055 -0.3926051469820059 3.171555149681837e-16  3.113478077610213 -0.9924495549400153 3.510830505762065e-16  2.840400132149515 -1.548806515270482 -1.707368614952523e-16  2.466120284856568 -2.042983582774378 9.732831365154574e-17  2.008125599488538 -2.460814027017948 -3.577575055983979e-16  1.482521285196868 -2.789563899556613 -4.886146623064541e-17  0.9057866143556688 -3.01678997208197 -2.439392613813594e-16  0.2964958724913082 -3.130681163554852 3.414395345104792e-16  -0.32338307292875 -3.126978161260848 2.926910878106614e-16  -1.29067345658392 -0.3506098753383553 -5.690421630247788  -1.068897680254163 -0.8451623229646739 -5.663999894259847  -0.6782440885714781 -1.219621806060448 -5.6187489875115  -0.168757542531344 -1.390394566692369 -5.560546895724229  0.3611301401510615 -1.294122251639114 -5.500717901478111  0.8191548613516448 -1.005201308695582 -5.449538098373106  1.16817203978903 -0.5892762115769014 -5.411042670828763  1.960898302630318 -0.551652302616722 -8.131516293641286e-17  1.751009740180289 -1.077278642631261 7.445724005953314e-16  1.394016468000002 -1.516729095803803 1.136104663605282e-15  0.9227767039454898 -1.830301465573364 3.434443593283319e-16  0.3780412068884804 -1.984007749105097 8.617772484356591e-16  -0.1885780664025548 -1.977994130030172 2.357202029695971e-16  -0.7327557451871473 -1.821291124380143 1.942410916395698e-17  -1.191068596016128 -1.491774666596192 2.975009434367945e-16  -1.480405544894888 -1.006855825633415 6.954512630084263e-16  -1.812414118534285 0.2561131097252937 -2.664867827914479  2.421751940242729 0.6298287624476981 -1.933377861698098  0.7556418177061754 1.42269463362527 -4.617654324361507  0.003134751711410342 1.574821943356493 -0.9318675177876981  1.015098001669947 1.51699057942374 -0.9441494884276413  0.6193243625380082 1.764115149411371 -1.862230514405671  -0.4757031201037318 1.549728101933577 -1.958273018773558  0.1126459993007786 1.698838152590054 -2.957602797129454  -0.3405660022430232 1.569615851499001 -4.678135257405353  1.818199099779932 0.7365610114574719 -3.763003518505052  -0.9541815370276669 1.23451227632913 -2.875526912859068  -1.269464226480212 1.016489154450913 -4.672047638709048  1.301562892980348 1.557566760682666 -2.802482532053872  -0.7813756340336595 1.414221906310649 -3.725761628685261  -1.58370798409762 0.5643609111372817 -3.581008460136619  -0.988817348255397 1.158392548936659 -1.014254585170146  -1.607700527190565 0.2800106654898483 -1.030081240453645  -1.388203055800784 0.7951310659851955 -1.943712885648593  0.8261955720421881 1.570157055202129 -3.620947225245673  1.681455131778566 1.410849015379531 -1.876189895849114  1.878739160554727 0.943024132521903 -0.9866418074548234  2.103426639579445 1.000735947836943 -2.593434794762663  1.62623803052506 0.6468498306152269 -4.727220189271843  -1.882943490361709 -0.1546739965127431 -1.761716647663214  0.05868355051519467 1.656538949473053 -3.863342338366238  2.465845305360337 0.2632819454094029 -2.663569745038379  1.994842599423799 0.5019775153043848 -0.4779055074204815  2.1671824130763 0.4980244878585698 -1.027636182799239  1.710213566460811 0.9718796190568162 -0.4957578884333736  1.845584590132108 0.2253887364997403 -4.583879812097906  1.579035044615276 0.2924902970866011 -5.101748935835201  1.409777182251665 0.7868327264427526 -5.07202467441607  -1.039178737375989 1.089168173550246 -5.170746090958521  -1.377687418630729 0.6683636420802941 -5.233117919580046  -1.641402128985454 0.4875654733502939 -4.648722230221863  -1.765467255797776 -0.2695484060062747 -1.079683539430899  -1.617858736076732 -0.08318463488274264 -0.5123563299218489  -1.474019211051276 0.4496529111656123 -0.5150171376928306  2.417677350191343 0.3274903893149403 -1.506992657970159 
[...]
<PointData  Vectors="displacement"> 
<DataArray  type="Float64"  Name="displacement"  NumberOfComponents="3" format="ascii">0.0000000000000000e+00 0.0000000000000000e+00 0.0000000000000000e+00  2.3801874387039149e-01 1.7214967490238645e-01 -2.2548021017435654e-01  -2.4610491748435048e-01 -6.5284757593624745e-02 -2.2811948829405770e-01  0.0000000000000000e+00 0.0000000000000000e+00 0.0000000000000000e+00  -2.5085988502750634e-01 1.9696131423001212e-01 -1.5378878295302673e-01  2.1026405764250677e-01 -1.5658949268513211e-01 -2.7430412043705188e-01  0.0000000000000000e+00 0.0000000000000000e+00 0.0000000000000000e+00  0.0000000000000000e+00 0.0000000000000000e+00 0.0000000000000000e+00  1.4007794982309291e-01 1.6219417783017814e-02 -2.7025558674284911e-02  2.2664140751190576e-01 5.0002365089948639e-02 -4.1154510437429785e-02  2.7837913014955168e-01 6.1314825735234925e-02 -6.8073760063832436e-02  3.1479788007537873e-01 7.1181915007958424e-02 -1.1573783437008590e-01  3.6121086327942165e-01 1.0261697904744176e-01 -1.7562871083710205e-01  3.8152572096200665e-01 1.3913136101437765e-01 -2.0549869668646059e-01  3.6598705676605281e-01 1.5631295950234203e-01 -2.1038284145731906e-01  3.2530336796418863e-01 1.6578482167438838e-01 -2.1142438785195763e-01  2.8344903684012113e-01 1.7576907998004451e-01 -2.2002008651033350e-01  1.2546477042218918e-01 2.5873242278189645e-01 -2.0066185786943513e-01  1.5699044895982742e-02 2.9817280727181900e-01 -1.9242570547885948e-01  -8.6549394142344985e-02 3.0486426252384202e-01 -1.7768549428211741e-01  -1.7398265891351300e-01 2.7509530424763184e-01 -1.8678415324197559e-01  -2.4449826768614194e-01 2.1920681303626163e-01 -1.9719540705236982e-01  -2.7891829202524643e-01 1.3436252173817592e-01 -2.1245518724842191e-01  -2.8813289942109649e-01 3.7453244402718168e-02 -2.2154185116138367e-01  -1.6519650339865452e-01 -4.3473916731411729e-03 -3.5449363796478527e-02  -2.3981537448130857e-01 -5.1049438530572942e-02 -3.5019798228457459e-02  -2.5755821436750942e-01 -1.0549921446444165e-01 -5.3399907145103731e-02  -2.8848887280990476e-01 -1.1372374007212294e-01 -9.7719323738647917e-02  -3.1421545179528876e-01 -1.1568894870403312e-01 -1.4270331059718216e-01  -3.1180351117095606e-01 -1.4324036905919058e-01 -1.7325419350137441e-01  -3.0466853019484752e-01 -1.4163883821973086e-01 -1.8232068800726700e-01  -2.9819218432495342e-01 -1.1343477030745924e-01 -1.8895131461908313e-01  -2.7849422445312250e-01 -9.0070346133876947e-02 -2.1179940156972440e-01  0.0000000000000000e+00 0.0000000000000000e+00 0.0000000000000000e+00  0.0000000000000000e+00 0.0000000000000000e+00 0.0000000000000000e+00  0.0000000000000000e+00 0.0000000000000000e+00 0.0000000000000000e+00  0.0000000000000000e+00 0.0000000000000000e+00 0.0000000000000000e+00  0.0000000000000000e+00 0.0000000000000000e+00 0.0000000000000000e+00  0.0000000000000000e+00 0.0000000000000000e+00 0.0000000000000000e+00  0.0000000000000000e+00 0.0000000000000000e+00 0.0000000000000000e+00  0.0000000000000000e+00 0.0000000000000000e+00 0.0000000000000000e+00  0.0000000000000000e+00 0.0000000000000000e+00 0.0000000000000000e+00  -2.8162505465578858e-01 1.4452997611381777e-01 -1.6062095107114896e-01  -2.9790972514467878e-01 7.7765572461151872e-02 -1.6678008313408652e-01  -2.9946838169866336e-01 1.7160513966723391e-02 -1.7830289864604210e-01  -2.7184074560310661e-01 -4.5821320717288991e-02 -1.7659689551788552e-01  -2.3349240096222529e-01 -1.1516977728720308e-01 -1.8314204716313426e-01  -1.7639086084325528e-01 -1.7646459928309025e-01 -1.8976415898609444e-01  -1.0387634202071262e-01 -2.1433856986078761e-01 -1.9245159305368534e-01  -2.1752703451572909e-02 -2.3412199357600258e-01 -1.9041970767776603e-01  6.0046717957311112e-02 -2.3884590542604114e-01 -2.0579578486516020e-01  1.0375716756974118e-01 -2.1455739494457107e-01 -2.2395012649949919e-01  1.4885927621074796e-01 -1.8341855457735098e-01 -2.3802414520255680e-01  1.6804818737965882e-01 -2.5332384533197333e-01 -2.5708594384455125e-01  1.4711473793920313e-01 -2.9506260079545160e-01 -2.1834769973129020e-01  1.4450938463968813e-01 -2.8408531001842047e-01 -1.6569078900348511e-01  1.3761994523042673e-01 -2.5884220433706717e-01 -1.2860955861375942e-01  1.2763985416422052e-01 -2.3900577742459714e-01 -1.0784792513302947e-01  1.0311526022088416e-01 -2.0452558414032745e-01 -7.1527971550252159e-02  8.8669382084614903e-02 -1.6559115742751690e-01 -5.0841925753215625e-02  7.2664499170664809e-02 -1.4237232302050248e-01 -3.7434665180425937e-02  3.6682291965110241e-02 -8.1787812048903882e-02 -7.3041172840643013e-03  0.0000000000000000e+00 0.0000000000000000e+00 0.0000000000000000e+00  0.0000000000000000e+00 0.0000000000000000e+00 0.0000000000000000e+00  0.0000000000000000e+00 0.0000000000000000e+00 0.0000000000000000e+00  0.0000000000000000e+00 0.0000000000000000e+00 0.0000000000000000e+00  0.0000000000000000e+00 0.0000000000000000e+00 0.0000000000000000e+00  0.0000000000000000e+00 0.0000000000000000e+00 0.0000000000000000e+00  0.0000000000000000e+00 0.0000000000000000e+00 0.0000000000000000e+00  0.0000000000000000e+00 0.0000000000000000e+00 0.0000000000000000e+00  0.0000000000000000e+00 0.0000000000000000e+00 0.0000000000000000e+00  0.0000000000000000e+00 0.0000000000000000e+00 0.0000000000000000e+00  0.0000000000000000e+00 0.0000000000000000e+00 0.0000000000000000e+00  0.0000000000000000e+00 0.0000000000000000e+00 0.0000000000000000e+00  0.0000000000000000e+00 0.0000000000000000e+00 0.0000000000000000e+00  0.0000000000000000e+00 0.0000000000000000e+00 0.0000000000000000e+00  0.0000000000000000e+00 0.0000000000000000e+00 0.0000000000000000e+00  -2.3922281641615398e-01 2.2074961065818310e-01 -1.5102779678341399e-01  -2.1167402734465340e-01 2.4261030353985191e-01 -1.4268913998976387e-01  -1.6908215876750077e-01 2.5978640325231800e-01 -1.3232472868822701e-01  -1.1945380865162579e-01 2.6548734952228614e-01 -1.0654415422858954e-01  -8.9650738379389930e-02 2.4788253115219525e-01 -7.6418131174722306e-02  -6.6355765449019541e-02 2.1276004021149228e-01 -4.2426185895201869e-02  -5.3616874655455303e-02 1.6822791468457238e-01 -1.4889203807225491e-02  -4.5030258392884000e-02 1.1138414533059071e-01 7.9154054241980659e-03  -2.1632467645114319e-02 5.0079208828577602e-02 1.8866266913015017e-02  2.6910190722717015e-01 -1.1313208124587300e-01 -3.0144281171506188e-01  3.1399651541420043e-01 -4.6433042914007877e-02 -3.0111821844062131e-01  3.3448957581839628e-01 4.9197374045186051e-02 -2.9465882149945127e-01  3.1592043516681295e-01 1.4511949697410714e-01 -2.6586838173282673e-01  2.5698501441653959e-01 2.3414368593481089e-01 -2.3792226558623805e-01  1.7626970480612925e-01 2.9560587064834243e-01 -2.0675121470976421e-01  8.1411225936262085e-02 3.3205470340105919e-01 -1.8491814273459259e-01  -1.2487370686554698e-02 3.4342105809003604e-01 -1.7419707746563398e-01  -1.0036086069465226e-01 3.2106278491455947e-01 -1.6439771832373676e-01  -1.6006501766117642e-01 2.9263185272866638e-01 -1.5683769994648972e-01  -2.0315285113065742e-01 2.4911800570134343e-01 -1.4747761388721989e-01  0.0000000000000000e+00 0.0000000000000000e+00 0.0000000000000000e+00  0.0000000000000000e+00 0.0000000000000000e+00 0.0000000000000000e+00  0.0000000000000000e+00 0.0000000000000000e+00 0.0000000000000000e+00  0.0000000000000000e+00 0.0000000000000000e+00 0.0000000000000000e+00  0.0000000000000000e+00 0.0000000000000000e+00 0.0000000000000000e+00  0.0000000000000000e+00 0.0000000000000000e+00 0.0000000000000000e+00  0.0000000000000000e+00 0.0000000000000000e+00 0.0000000000000000e+00  0.0000000000000000e+00 0.0000000000000000e+00 0.0000000000000000e+00  0.0000000000000000e+00 0.0000000000000000e+00 0.0000000000000000e+00  0.0000000000000000e+00 0.0000000000000000e+00 0.0000000000000000e+00  0.0000000000000000e+00 0.0000000000000000e+00 0.0000000000000000e+00  0.0000000000000000e+00 0.0000000000000000e+00 0.0000000000000000e+00  0.0000000000000000e+00 0.0000000000000000e+00 0.0000000000000000e+00  0.0000000000000000e+00 0.0000000000000000e+00 0.0000000000000000e+00  0.0000000000000000e+00 0.0000000000000000e+00 0.0000000000000000e+00  -1.7539476514339009e-01 -1.6406357731486731e-01 -2.2825819718362539e-01  -7.3210205009294385e-02 -2.3699315814087143e-01 -2.3034357540391259e-01  5.7182600027011816e-02 -2.7049610393680046e-01 -2.2824676657621984e-01  1.8686363543322543e-01 -2.3900509854245494e-01 -2.4470941941955476e-01  2.8870005019339828e-01 -1.8295041987767274e-01 -2.4990506329344606e-01  3.3107335795391557e-01 -7.2669704360310214e-02 -2.5175936019346135e-01  3.1201747891043202e-01 5.9514470537029331e-02 -2.4259787937411442e-01  0.0000000000000000e+00 0.0000000000000000e+00 0.0000000000000000e+00  0.0000000000000000e+00 0.0000000000000000e+00 0.0000000000000000e+00  0.0000000000000000e+00 0.0000000000000000e+00 0.0000000000000000e+00  0.0000000000000000e+00 0.0000000000000000e+00 0.0000000000000000e+00  0.0000000000000000e+00 0.0000000000000000e+00 0.0000000000000000e+00  0.0000000000000000e+00 0.0000000000000000e+00 0.0000000000000000e+00  0.0000000000000000e+00 0.0000000000000000e+00 0.0000000000000000e+00  0.0000000000000000e+00 0.0000000000000000e+00 0.0000000000000000e+00  0.0000000000000000e+00 0.0000000000000000e+00 0.0000000000000000e+00  -3.9473333727425108e-01 7.6564428127966641e-02 -1.1230905359839252e-01  2.3358401015517682e-01 1.8248589820222594e-01 -8.9502292433988995e-02  -6.4530191872253589e-02 3.6078832447611392e-01 -1.5254218433516448e-01  -6.9966126364647191e-02 2.1590890131263746e-01 -5.7712208038922040e-02  3.5082699305271275e-02 2.1153252644242754e-01 -4.8779613002694351e-02  -4.0503581431342098e-02 3.3244097484503177e-01 -9.8472623565337022e-02  -2.1791513249407329e-01 3.0779790013402003e-01 -9.7496174264198640e-02  -1.6670258944964267e-01 3.8080362452976424e-01 -1.1929647515902266e-01  -2.6163949921868229e-01 2.8124205569788990e-01 -1.5183085190714918e-01  2.1710364800182330e-01 3.1394958545814211e-01 -1.7313532449880836e-01  -3.4430254389743620e-01 2.8101931953925352e-01 -1.0765649157925772e-01  -3.6468283800312140e-01 1.2495142861420830e-01 -1.6624807354565141e-01  5.6461567728307710e-02 3.6712544341935910e-01 -1.4136587066761735e-01  -3.3279421521539326e-01 2.8301892243222704e-01 -1.2474719737849166e-01  -4.1597618391997615e-01 1.0603144423415140e-01 -1.3317419996761720e-01  -1.8791301746669647e-01 1.6908558452226444e-01 -6.1585374014213989e-02  -2.4258154835780127e-01 6.7006177148789189e-02 -5.3535054146235932e-02  -3.3957264685259420e-01 1.7524625794132104e-01 -8.6934703290899487e-02  -3.8250651740713432e-02 3.8977967131275804e-01 -1.4245166314111526e-01  1.1616381879327259e-01 2.8391098723201513e-01 -8.7142173619299837e-02  1.4529387628012944e-01 1.5147546557834743e-01 -4.2675276165328249e-02  2.0417946908227677e-01 2.8171257921299475e-01 -1.4483261726434912e-01  1.4851560793984220e-01 2.9431835456214833e-01 -1.8012295344239884e-01  -3.3485588451943543e-01 2.2272641305004420e-02 -7.1339937235007631e-02  -1.9282158311840406e-01 3.6395602749981526e-01 -1.2842770868527872e-01  3.0466557428109625e-01 1.8599166196109918e-01 -1.6043772438522105e-01  1.1295005083640618e-01 4.7408712519148147e-02 -2.8686392290500209e-02  1.8735846278595944e-01 1.0317720616594331e-01 -3.8675488608550995e-02  8.9221285213082868e-02 8.5996468276721638e-02 -3.1118091844985939e-02  2.4317381360278090e-01 2.4194618573817969e-01 -1.9617283962255783e-01  1.8602293190902347e-01 2.4485966489666056e-01 -2.0390035536857623e-01  8.5607139574890703e-02 2.9865133395535354e-01 -1.8325565221328816e-01  -3.2656347551179316e-01 1.2878196213391624e-01 -1.9212237165553922e-01  -3.2025855260887187e-01 2.5033210975219846e-02 -2.0353135204219633e-01  -3.5449203808611457e-01 7.9624932242093535e-03 -1.7839487481712610e-01  -2.5215941130615621e-01 1.2767438086177328e-02 -4.9746083415638687e-02  -1.4118850571791633e-01 2.4485084685780305e-02 -3.6866768019821194e-02  -1.3125306291600763e-01 5.6166932285926480e-02 -3.8044527622404060e-02  2.3946697166091246e-01 1.1774338871056422e-01 -5.8343716025433069e-02  2.7371973715161863e-01 1.2805060083000369e-01 -9.8036554436696205e-02  1.9430231103583584e-01 1.7450452617175821e-01 -5.9553232702636155e-02  3.1491498809868235e-01 1.2637583983793479e-01 -1.4215967738943652e-01  3.4819680107470657e-01 1.6963743767327297e-01 -1.8668807975008619e-01  2.6142948381238063e-01 1.8629480713721286e-01 -1.2317925882483889e-01  3.1587417269593954e-01 2.3578301611486763e-01 -1.9135739824806833e-01  2.7679492656193377e-01 2.4861298966529230e-01 -1.8919596685757201e-01  2.8781572799545341e-01 2.5817020133635665e-01 -1.8544636771451964e-01  1.8218415796940973e-01 3.0810774473451291e-01 -1.7144166329234650e-01  -2.2538922775917257e-02 3.3530631665794436e-01 -1.6766748834346371e-01  -1.2015064760676261e-01 3.2822505921086426e-01 -1.6640585197982047e-01  4.1066433662930280e-02 3.4106469069590573e-01 -1.6662569501055285e-01  -2.1792956382286593e-01 2.8492658098373530e-01 -1.6965677994013834e-01  -2.8813441258932937e-01 2.1282094701981794e-01 -1.7638138922040908e-01  -1.6850648578899274e-01 3.3541873919686543e-01 -1.5302262168557590e-01  -3.3148882822608006e-01 2.1075920930909950e-01 -1.5690481510643098e-01  -3.2698312856138839e-01 -4.3704803014891096e-02 -7.7709005929566463e-02  -2.9017538887866590e-01 -1.9291911535709031e-02 -5.2793378261620262e-02  -3.0012778513033223e-01 5.1040010371023653e-02 -6.1447655866755019e-02  -3.7694154185450401e-01 -2.9040081455970021e-02 -1.4449705462627713e-01  -3.5453226300685819e-01 -2.3594131947056944e-02 -1.0863896136245990e-01  -3.7205907502485952e-01 5.2685789446340864e-02 -9.1675116159563544e-02  -3.8459875173690561e-01 -1.9466269819786877e-03 -1.5455982152061404e-01  -3.8873704221601457e-01 -2.0479842281783019e-02 -1.5289597102031632e-01  -4.1011695082565974e-01 9.4477006097084010e-02 -1.2666286553724657e-01  -3.9905400915235656e-01 1.1809183973263020e-01 -1.4134691608916539e-01  -1.1039231037658651e-01 8.4498954666672968e-02 -4.0899634681574634e-02  -8.2995503897510356e-02 1.1132415270886353e-01 -4.5361956072487830e-02  -2.2135196590030687e-01 1.1942157149325135e-01 -6.1666977046489831e-02  -4.7395110448199156e-02 1.2661918362906316e-01 -4.2970164131227423e-02  -1.6926242723416175e-02 1.2917442621389638e-01 -4.2409238435742708e-02  -1.2972077490012737e-01 1.9989014812981590e-01 -6.2968018892058525e-02  1.6812818671251062e-02 1.2583304757656469e-01 -3.8411854013447301e-02  5.2438846852233933e-02 1.0656561560190309e-01 -3.2709636772418942e-02  -1.8514648730547787e-02 2.1856488124934395e-01 -5.2239370584281859e-02  8.9972640758191655e-02 1.8652693853326435e-01 -4.4576088605162441e-02  -3.9075162889185289e-01 1.8484201840561229e-01 -1.0645463882328275e-01  -3.9655913830374262e-01 2.0419256278008013e-01 -1.1374669672525005e-01  -3.5175355925022067e-01 2.3403585553185213e-01 -9.6962729049633323e-02  -3.7899907691179313e-01 1.3706307219973782e-01 -9.5105405506144894e-02  -3.4969129737258670e-01 9.9112619061727802e-02 -7.9115885395279584e-02  1.8012491944202336e-01 2.3639511262029758e-01 -8.7115714457890153e-02  1.4045010770220226e-01 2.2219234074617300e-01 -5.9607246073558127e-02  1.5370746516164036e-01 2.8478326408549531e-01 -1.1215910460289111e-01  2.1976351967252694e-01 2.3344161154597129e-01 -1.1827005029816248e-01  2.5643681373842708e-01 2.3909602500723282e-01 -1.5718658596630591e-01  -1.2852352100941100e-01 3.6702919234537196e-01 -1.3967317928168707e-01  -2.3151879276627538e-01 3.3102568924284070e-01 -1.3685732141389087e-01  7.4985636150784588e-02 3.5999777757493279e-01 -1.5706939034230574e-01  9.2645646275244700e-02 3.7019466518651123e-01 -1.5728079359122213e-01  -5.0447417852974637e-02 3.7977218132598267e-01 -1.4555276583762414e-01  -1.1829119684029117e-01 3.8276517974770524e-01 -1.3540523579482605e-01  -6.6371583701552300e-02 2.8265852566406235e-01 -7.1165664959346120e-02  4.0071634521248829e-03 2.7998475710543469e-01 -7.1443240381140333e-02  -1.4573394481138194e-01 2.6988680522618297e-01 -7.4509028839022579e-02  -1.2913510917854737e-01 3.3074436781592592e-01 -9.7917609660706853e-02  -2.1504673914260466e-01 2.3882503477657008e-01 -7.8579691974506274e-02  4.1154627024576527e-02 3.1699821397310396e-01 -9.0225069839782693e-02  7.7341141372402861e-02 2.5714321666671774e-01 -6.6988841328809334e-02  -1.9984700485131296e-01 3.5279512156591181e-01 -1.1182475714530503e-01  -1.0150091324723542e-01 3.7228129889969575e-01 -1.1955591201665629e-01  -5.3118729320590932e-02 3.8510594587269004e-01 -1.3236733174644699e-01  2.9794663023314286e-03 3.5897627853697101e-01 -1.1676975797675268e-01  8.9361123668988837e-02 3.3133104957130982e-01 -1.1774276878162614e-01  -2.8731773293012419e-01 3.0890094403018348e-01 -1.0623627193853390e-01  -2.6541530396588764e-01 3.4157446565759336e-01 -1.1345717714250821e-01  -2.9145442677872763e-01 2.4933523383329720e-01 -9.1531264149561614e-02  -2.7175683558064384e-01 1.8065360047172660e-01 -7.5034654030519191e-02  -3.4278669095058961e-01 2.8573175867081030e-01 -1.1511303427890644e-01  -2.5826336767439356e-01 3.4684599401679894e-01 -1.1683164578679532e-01  -1.0746543932578323e-01 3.8834058313577613e-01 -1.3280256390751424e-01  1.5182064181082415e-02 3.8618236391288085e-01 -1.4616176060979863e-01  -2.6750013851632243e-01 3.3194781438142290e-01 -1.2215774284388134e-01  -1.8319816328006128e-01 3.7773096748487323e-01 -1.2331912488835528e-01  -2.9956984428788402e-01 2.8867903869132294e-01 -1.3451144131419221e-01  -3.6365451645684171e-01 2.1335423289248390e-01 -1.4092052801396085e-01  1.3759339156180500e-01 3.5652605693427514e-01 -1.6229120112753553e-01  2.2322547375761756e-01 3.0870832531655451e-01 -1.7714063976464250e-01  1.3598508496365877e-01 3.3112523217819323e-01 -1.4449247896370124e-01  -3.9486848535043545e-01 2.0285358225024541e-01 -1.2081785468878441e-01  -3.0403272922370939e-01 1.1845423211060184e-01 -7.1397166468207166e-02  6.2226705087374934e-02 -2.2902188023317885e-01 -1.0195660241949817e-01  -1.4248037903693120e-01 1.2417254640809425e-02 8.0223531918148343e-03  -1.4018431420835467e-01 -2.3894498418902210e-01 -1.9138371284657610e-01  -1.3563387904204877e-01 -3.7753523005394925e-02 -1.2297284300069509e-03  -3.8781044462175354e-02 -1.1134222028302193e-01 -2.4166198078463111e-02  -2.7133665049428751e-01 -1.3132922683576029e-01 -1.8760467342797021e-01  -3.2132708359393869e-01 2.7622981340398905e-02 -1.6427262071381094e-01  -1.0466109521001675e-01 1.4803342094873412e-01 -8.6202406892891964e-03  -2.6105046462262332e-01 -1.4451786112637216e-01 -1.5442624632845223e-01  -2.2804436158074393e-01 2.1798098481430100e-01 -1.2396073228902285e-01  -1.1058983584733259e-01 -2.4991245729436959e-01 -1.5826859942655458e-01  -1.8523259527250277e-01 -1.8749888327025913e-01 -1.0069610804837570e-01  -6.2179893752186931e-02 -2.2411177683296840e-01 -1.0143840304856680e-01  -1.1425726308327788e-01 -1.7571513178311809e-01 -7.0735518462642755e-02  -2.4116255162542879e-01 -3.1032544524219663e-02 -4.3109284603042100e-02  -2.3711987700907947e-01 6.9912946336864554e-02 -3.0183767739903167e-02  -1.0151687081990646e-03 -2.6344918043485749e-01 -1.4743077562293441e-01  -3.0511663946872736e-01 -3.6502322775275827e-03 -9.4217936377158376e-02  -2.9962899646548380e-01 1.0077196588247776e-01 -9.9698338073060735e-02  4.7907891332438717e-02 -1.7841383103794184e-01 -6.5389718660277985e-02  -1.8697628767325930e-01 1.4545334028335119e-01 -2.4901482536746261e-02  -9.9395637090134478e-02 -9.6497099412648182e-02 -2.5411610877212300e-02  -3.1033327224904234e-02 -2.4084534975211822e-01 -1.8329527223041778e-01  9.2247816738028048e-03 -2.0287234488314060e-01 -8.1154995729267446e-02  -1.2294214221481362e-01 6.6714627281436900e-02 1.0547554695360837e-02  -1.5707390317556857e-01 2.2288062729427222e-01 -6.7300988815422694e-02  7.3955063994911002e-02 -2.6275183436261468e-01 -1.3914389177955117e-01  4.6529331109041137e-02 -2.6125121265976020e-01 -1.9858711900263021e-01  -2.6178497011903556e-01 1.8452838160650259e-01 -1.4802405856437609e-01  -8.2950990547016282e-02 7.9588309582640751e-02 1.4166116491750867e