<?xml version="1.0"?>
<VTKFile type="UnstructuredGrid"  version="0.1"  >
<UnstructuredGrid>
<Piece  NumberOfPoints="1268" NumberOfCells="4847">
<Points>
<DataArray  type="Float64"  NumberOfComponents="3"  format="ascii">1.994716987487452 0.01317707561264319 -1.202466945460223e-11  1.374072606111497 -0.08614134488653273 -5.388997575085332  -1.285941478930618 0.1916557790035214 -5.691288663606836  -1.59032616235459 -0.4515196446136259 1.626303258728257e-17  0.4950030257755884 2.521650519233041 -5.495391852657774  -0.4107718940653654 -2.429115409112172 -5.58531208084276  -0.9314707163843408 -3.006923447963563 4.87890977618477e-17  1.161824811771535 2.948440156756841 -3.391384395534658e-14  2.146749234505421 0.002696741478414759 -0.5615078450779066  2.330988047973839 -0.000873250973709995 -1.113141311680313  2.540713632977715 -0.1384292375506191 -1.637427654548237  2.645241452520652 -0.2872312815961211 -2.18637082393926  2.504842461151312 -0.2752146673621067 -2.746850782899552  2.287876352721185 -0.2088259978706829 -3.283011632728322  2.137771360922677 -0.2093380261300688 -3.844996501809416  1.970142554575494 -0.2193701374385486 -4.401638277082749  1.701580801829277 -0.1696632515169769 -4.915066532844666  1.398049690886424 0.4419377546899956 -5.387643705321969  1.183972204621215 0.9208338616597355 -5.413149504812257  0.7621482426349403 1.234356207118232 -5.461782499987256  0.2539805730796886 1.370727420898931 -5.519751404145364  -0.2689415860383004 1.319053689498898 -5.578906487138381  -0.7357170559581984 1.076180709179107 -5.631191713357971  -1.086003096318238 0.6812820615514149 -5.669884670156524  -1.65706961757681 -0.5275128747266272 -0.6240725009925172  -1.829082870387909 -0.8347372240299333 -1.153553189134448  -2.030635262011336 -1.097965926806997 -1.693320688638939  -2.148557703924963 -0.9683820133813712 -2.295450526931833  -2.119047321408695 -0.7521727279271558 -2.890676896601294  -1.972500555455803 -0.7106310836492745 -3.509380855831461  -1.885028119342598 -0.4902108162504233 -4.093718100793141  -1.832050776792238 -0.1313823297003599 -4.617858136599065  -1.636180550340053 0.1151199882480144 -5.165527944859976  -1.540434086810702 0.1014447694855235 -7.644826989049428e-17  -1.339902801239663 0.6191128040412099 2.218327606354497e-17  -0.9949589579071262 1.053322092476122 2.12059320661159e-17  -0.5243975458638882 1.346285776146202 7.754217898549941e-16  0.01399251627036286 1.481823287560149 3.252316763596149e-17  0.5696211504784076 1.47677978548424 -7.207855520904863e-17  1.105448032340458 1.331487337928338 1.951563910473908e-16  1.561367740818086 1.018090979386763 -2.179459114756194e-16  1.860006992193919 0.551530302300456 1.369433074745588e-16  -0.152869286718376 2.506583809965366 -5.568804938302105  -0.7781210310064858 2.335338381675429 -5.639249366957451  -1.340550096787874 2.011723800088065 -5.702178028336585  -1.803922993566052 1.555830170950866 -5.753534898075912  -2.144678763029901 1.000979069722826 -5.790734833138769  -2.346903237737564 0.3811866585909049 -5.812061421922149  -2.406990243842066 -0.2684488461825228 -5.817196438260218  -2.318433628103212 -0.9144163570965761 -5.805488779558074  -2.059391262210163 -1.511004864267824 -5.774580158166454  -1.615755841275718 -1.983465489741105 -5.72306417450185  -1.043145925381342 -2.287058241276404 -5.657361969815248  -0.6986882361605687 -2.420627649803484 -5.024556445072709  -0.8272574030199392 -2.685291244074475 -4.476216325063944  -0.8113210073272845 -3.118860027310894 -4.01596683617901  -0.7618552434953355 -3.481598098596065 -3.504026669625047  -0.7509882165597778 -3.609083979854663 -2.886473298216772  -0.7986167670519319 -3.732483084086931 -2.268445488219849  -0.8276969497603353 -3.810997815301134 -1.64593496945388  -0.7425506523451623 -3.557242155569485 -1.078322423839125  -0.7147449622328144 -3.21189056194362 -0.5511080601316157  -1.482234509376526 -2.778582553401298 -5.854479658363816e-16  -1.970737176894139 -2.437284655419533 2.764697292186607e-16  -2.362818572203899 -1.988727212877528 2.439101268600111e-16  -2.642390785384022 -1.462244173776716 5.051059276813266e-16  -2.812149102113852 -0.89052423419162 2.276851973687203e-16  -2.877946727920729 -0.2976446157883296 -1.219909928720168e-16  -2.842947107925845 0.2978601752284433 4.065446096494693e-17  -2.70313036896374 0.8776122116387211 -5.041496169361013e-16  -2.452324348076021 1.418519584933707 4.379274460317988e-16  -2.098265626135573 1.898294456130726 1.951060033519619e-16  -1.658391347368763 2.301023318502569 -1.789574489620802e-16  -1.154148079923361 2.619757341302747 -2.081203863085907e-15  -0.6042202207747882 2.851073703499478 -3.577841418755692e-16  -0.02416138323675775 2.990516581461941 4.065982498622179e-16  0.5710641261211448 3.028216945076794 -1.46882551317968e-16  0.6414151130412097 2.696325287154043 -4.983333021490838  0.771852374565919 2.778456367279237 -4.445188759107248  0.8805845204306011 2.73078881179073 -3.897720120696569  0.9481597620953167 2.69798349057175 -3.343104559074628  0.9815370707090804 2.778214865778854 -2.789250505759619  1.013475345489448 2.861817704396183 -2.235671116027784  1.055849759321274 2.898356228459238 -1.677594140621302  1.093646323460014 2.92793989028903 -1.118725590781912  1.124098871622056 2.957526991478201 -0.5594169689370629  0.2477015793419729 -2.415655802610486 -5.510682951113449  0.8844491790088972 -2.245867158009595 -5.438931443942415  1.464891069119211 -1.932330028996181 -5.373934600293736  1.955087092649627 -1.489613175355717 -5.319502697776375  2.318355026965356 -0.937054784961175 -5.279744576064058  2.524994411863564 -0.307899182343253 -5.257941630215678  2.574632820450045 0.3531084349228537 -5.254020561031156  2.465743861849647 1.006614152640354 -5.268052816559671  2.183897076015212 1.604484044160622 -5.301550147358176  1.722560240631265 2.07491696755195 -5.35506775502591  1.13806318635062 2.378906583716481 -5.422118662603529  1.742182153284979 2.73179858498085 5.854691697147836e-16  2.262480931380501 2.395264875892136 -2.601681534737615e-16  2.698000706832733 1.954727370266727 -3.903113804560263e-16  3.021530388777258 1.426473918441798 1.707421408502106e-16  3.223363606607101 0.8405687193648443 -2.844806418042028e-16  3.305434793487241 0.2261994274297442 -4.472186606099012e-16  3.269241566985055 -0.3926051469820059 3.171555149681837e-16  3.113478077610213 -0.9924495549400153 3.510830505762065e-16  2.840400132149515 -1.548806515270482 -1.707368614952523e-16  2.466120284856568 -2.042983582774378 9.732831365154574e-17  2.008125599488538 -2.460814027017948 -3.577575055983979e-16  1.482521285196868 -2.789563899556613 -4.886146623064541e-17  0.9057866143556688 -3.01678997208197 -2.439392613813594e-16  0.2964958724913082 -3.130681163554852 3.414395345104792e-16  -0.32338307292875 -3.126978161260848 2.926910878106614e-16  -1.29067345658392 -0.3506098753383553 -5.690421630247788  -1.068897680254163 -0.8451623229646739 -5.663999894259847  -0.6782440885714781 -1.219621806060448 -5.6187489875115  -0.168757542531344 -1.390394566692369 -5.560546895724229  0.3611301401510615 -1.294122251639114 -5.500717901478111  0.8191548613516448 -1.005201308695582 -5.449538098373106  1.16817203978903 -0.5892762115769014 -5.411042670828763  1.960898302630318 -0.551652302616722 -8.131516293641286e-17  1.751009740180289 -1.077278642631261 7.445724005953314e-16  1.394016468000002 -1.516729095803803 1.136104663605282e-15  0.9227767039454898 -1.830301465573364 3.434443593283319e-16  0.3780412068884804 -1.984007749105097 8.617772484356591e-16  -0.1885780664025548 -1.977994130030172 2.357202029695971e-16  -0.7327557451871473 -1.821291124380143 1.942410916395698e-17  -1.191068596016128 -1.491774666596192 2.975009434367945e-16  -1.480405544894888 -1.006855825633415 6.954512630084263e-16  -1.812414118534285 0.2561131097252937 -2.664867827914479  2.421751940242729 0.6298287624476981 -1.933377861698098  0.7556418177061754 1.42269463362527 -4.617654324361507  0.003134751711410342 1.574821943356493 -0.9318675177876981  1.015098001669947 1.51699057942374 -0.9441494884276413  0.6193243625380082 1.764115149411371 -1.862230514405671  -0.4757031201037318 1.549728101933577 -1.958273018773558  0.1126459993007786 1.698838152590054 -2.957602797129454  -0.3405660022430232 1.569615851499001 -4.678135257405353  1.818199099779932 0.7365610114574719 -3.763003518505052  -0.9541815370276669 1.23451227632913 -2.875526912859068  -1.269464226480212 1.016489154450913 -4.672047638709048  1.301562892980348 1.557566760682666 -2.802482532053872  -0.7813756340336595 1.414221906310649 -3.725761628685261  -1.58370798409762 0.5643609111372817 -3.581008460136619  -0.988817348255397 1.158392548936659 -1.014254585170146  -1.607700527190565 0.2800106654898483 -1.030081240453645  -1.388203055800784 0.7951310659851955 -1.943712885648593  0.8261955720421881 1.570157055202129 -3.620947225245673  1.681455131778566 1.410849015379531 -1.876189895849114  1.878739160554727 0.943024132521903 -0.9866418074548234  2.103426639579445 1.000735947836943 -2.593434794762663  1.62623803052506 0.6468498306152269 -4.727220189271843  -1.882943490361709 -0.1546739965127431 -1.761716647663214  0.05868355051519467 1.656538949473053 -3.863342338366238  2.465845305360337 0.2632819454094029 -2.663569745038379  1.994842599423799 0.5019775153043848 -0.4779055074204815  2.1671824130763 0.4980244878585698 -1.027636182799239  1.710213566460811 0.9718796190568162 -0.4957578884333736  1.845584590132108 0.2253887364997403 -4.583879812097906  1.579035044615276 0.2924902970866011 -5.101748935835201  1.409777182251665 0.7868327264427526 -5.07202467441607  -1.039178737375989 1.089168173550246 -5.170746090958521  -1.377687418630729 0.6683636420802941 -5.233117919580046  -1.641402128985454 0.4875654733502939 -4.648722230221863  -1.765467255797776 -0.2695484060062747 -1.079683539430899  -1.617858736076732 -0.08318463488274264 -0.5123563299218489  -1.474019211051276 0.4496529111656123 -0.5150171376928306  2.417677350191343 0.3274903893149403 -1.506992657970159 
[...]
<PointData  Vectors="displacement"> 
<DataArray  type="Float64"  Name="displacement"  NumberOfComponents="3" format="ascii">0.0000000000000000e+00 0.0000000000000000e+00 0.0000000000000000e+00  3.9227127567237213e-01 3.2146417190686971e-01 -5.9147022207372757e-01  -5.0719654043013973e-01 -1.3176705209876921e-01 -5.9079446101899169e-01  0.0000000000000000e+00 0.0000000000000000e+00 0.0000000000000000e+00  -4.5685224597596419e-01 3.6033940701120887e-01 -4.2562762581067842e-01  3.0708361239436460e-01 -2.7923751030172178e-01 -6.1177821430294921e-01  0.0000000000000000e+00 0.0000000000000000e+00 0.0000000000000000e+00  0.0000000000000000e+00 0.0000000000000000e+00 0.0000000000000000e+00  3.0522290852933393e-01 7.1791396225158940e-02 -2.6236138085619573e-02  4.7029192291988287e-01 1.4306704750719956e-01 -6.4902363419245795e-02  5.4379848139186937e-01 1.6155305074736392e-01 -1.3925157715688546e-01  5.8426997728522934e-01 1.7698433989423198e-01 -2.4576096977395565e-01  6.3584303291808153e-01 2.2710101523735310e-01 -3.6665478873019669e-01  6.5220544941544312e-01 2.8380439212792391e-01 -4.4470258272638796e-01  6.1078020631915653e-01 3.0652656029268621e-01 -4.8245526248428477e-01  5.3817753903309462e-01 3.1280913499268093e-01 -5.1923064344242886e-01  4.6605107448762445e-01 3.2272381889776652e-01 -5.6126222385653224e-01  2.0903246156264513e-01 4.7371874448833690e-01 -5.5360939643312923e-01  1.1721209418567814e-02 5.4930958481578174e-01 -5.3331372804132116e-01  -1.7456197607341634e-01 5.6657067253443771e-01 -5.1690889803825035e-01  -3.4092574313163010e-01 5.0603252992251568e-01 -5.3016884537162678e-01  -4.7333862761748291e-01 3.9122126077460223e-01 -5.4219926322970502e-01  -5.5098266828870435e-01 2.3549324627337631e-01 -5.6195027442658041e-01  -5.6840109127848715e-01 5.4946903418523214e-02 -5.7874806874660256e-01  -3.5831405035336117e-01 -3.7250404065620649e-02 -3.2499268955380696e-02  -4.9875175043796732e-01 -1.3849665734096531e-01 -5.2329789067533723e-02  -5.2036067147409470e-01 -2.4186441992003604e-01 -1.2362822672191981e-01  -5.7078302106470657e-01 -2.5676044448156737e-01 -2.3227625028899626e-01  -6.1776209781972358e-01 -2.5391845845301603e-01 -3.3004731092779516e-01  -6.1676809493142670e-01 -2.9421182096879023e-01 -4.0804353060436116e-01  -6.0539151190388263e-01 -2.8403227379685947e-01 -4.4365602011230731e-01  -5.9068623318767022e-01 -2.2231147576463189e-01 -4.7321193611304213e-01  -5.5545288600472476e-01 -1.7569700943962957e-01 -5.3270231004698199e-01  0.0000000000000000e+00 0.0000000000000000e+00 0.0000000000000000e+00  0.0000000000000000e+00 0.0000000000000000e+00 0.0000000000000000e+00  0.0000000000000000e+00 0.0000000000000000e+00 0.0000000000000000e+00  0.0000000000000000e+00 0.0000000000000000e+00 0.0000000000000000e+00  0.0000000000000000e+00 0.0000000000000000e+00 0.0000000000000000e+00  0.0000000000000000e+00 0.0000000000000000e+00 0.0000000000000000e+00  0.0000000000000000e+00 0.0000000000000000e+00 0.0000000000000000e+00  0.0000000000000000e+00 0.0000000000000000e+00 0.0000000000000000e+00  0.0000000000000000e+00 0.0000000000000000e+00 0.0000000000000000e+00  -5.1361729375372511e-01 2.6300208316500862e-01 -4.3309705313851887e-01  -5.4759304662037567e-01 1.5262895297410919e-01 -4.3895140846469416e-01  -5.5090950601295718e-01 3.8283685660208913e-02 -4.5215484855235111e-01  -5.1910968142486502e-01 -7.7068217131447264e-02 -4.6020045901016987e-01  -4.6214131257423147e-01 -1.9376006891685030e-01 -4.6830336617051266e-01  -3.6720508848835515e-01 -2.9506145297133402e-01 -4.7993075309756800e-01  -2.5108662796219267e-01 -3.6569608944257875e-01 -4.8457399281033570e-01  -1.2030200746514329e-01 -4.0256133253689863e-01 -4.9246518506881926e-01  1.8893922086641358e-02 -4.0731981375072251e-01 -5.1500177107204426e-01  1.0526099558640174e-01 -3.8270038391822658e-01 -5.3659869908311020e-01  2.0355217210149193e-01 -3.3514200211400114e-01 -5.6873411448009092e-01  2.3100737181598319e-01 -4.3837774323242212e-01 -5.7018881555164169e-01  2.0129712827300275e-01 -5.0733103989688100e-01 -5.0025124750348815e-01  2.0905737747820261e-01 -4.9598737590236697e-01 -4.0500467671506185e-01  2.0877105136260504e-01 -4.6487427288168864e-01 -3.3415391183331639e-01  1.9346857028631109e-01 -4.4904792647195230e-01 -2.7865925973160044e-01  1.5855429028187970e-01 -4.0078829435795793e-01 -2.0091805344114191e-01  1.4271107955800949e-01 -3.3410395808568000e-01 -1.4592376787496744e-01  1.0255894486889590e-01 -2.8986522716540214e-01 -9.4778170569880263e-02  5.0844080830768870e-02 -1.8921735286170338e-01 -2.3618119296842478e-02  0.0000000000000000e+00 0.0000000000000000e+00 0.0000000000000000e+00  0.0000000000000000e+00 0.0000000000000000e+00 0.0000000000000000e+00  0.0000000000000000e+00 0.0000000000000000e+00 0.0000000000000000e+00  0.0000000000000000e+00 0.0000000000000000e+00 0.0000000000000000e+00  0.0000000000000000e+00 0.0000000000000000e+00 0.0000000000000000e+00  0.0000000000000000e+00 0.0000000000000000e+00 0.0000000000000000e+00  0.0000000000000000e+00 0.0000000000000000e+00 0.0000000000000000e+00  0.0000000000000000e+00 0.0000000000000000e+00 0.0000000000000000e+00  0.0000000000000000e+00 0.0000000000000000e+00 0.0000000000000000e+00  0.0000000000000000e+00 0.0000000000000000e+00 0.0000000000000000e+00  0.0000000000000000e+00 0.0000000000000000e+00 0.0000000000000000e+00  0.0000000000000000e+00 0.0000000000000000e+00 0.0000000000000000e+00  0.0000000000000000e+00 0.0000000000000000e+00 0.0000000000000000e+00  0.0000000000000000e+00 0.0000000000000000e+00 0.0000000000000000e+00  0.0000000000000000e+00 0.0000000000000000e+00 0.0000000000000000e+00  -4.2668867751430128e-01 4.0038096895800268e-01 -4.0158145355185959e-01  -3.7787695222681478e-01 4.4036578318498582e-01 -3.7658053447927492e-01  -3.0433011130119325e-01 4.7793266905796133e-01 -3.4028539113668083e-01  -2.2857091667207025e-01 4.9673469654171132e-01 -2.8387410712311212e-01  -1.8271992450781216e-01 4.7667778563440089e-01 -2.1720850565513131e-01  -1.4331352095096536e-01 4.2668350362668483e-01 -1.4640651569767954e-01  -1.0873524221359521e-01 3.5309164005364663e-01 -7.8870835020517213e-02  -8.1534934644365814e-02 2.4316694104069986e-01 -1.2709357746445661e-02  -4.4064998421911222e-02 1.2258071773481938e-01 2.9919619906915280e-02  4.0178198788849379e-01 -1.9596633204127681e-01 -6.3601592069585411e-01  4.7823577381979510e-01 -8.1538245645991422e-02 -6.3667055936362249e-01  5.0276232713084845e-01 6.5554684126913204e-02 -6.2123881910714207e-01  4.8138288998907058e-01 2.2057102815579374e-01 -5.8285200274723947e-01  3.9362431178635282e-01 3.6012092025399778e-01 -5.4215729527023782e-01  2.7019780912602887e-01 4.6833843128309766e-01 -5.0339247467012616e-01  1.2525060163204993e-01 5.3502411057163402e-01 -4.7072166275814337e-01  -3.1925427345664691e-02 5.6847388704686086e-01 -4.5383889951347561e-01  -1.6977153820142091e-01 5.4530732771255730e-01 -4.3474436493723317e-01  -2.8416389167352529e-01 5.0912751190120664e-01 -4.2469421319959727e-01  -3.7219490487814227e-01 4.4357567825403676e-01 -4.2030625642600283e-01  0.0000000000000000e+00 0.0000000000000000e+00 0.0000000000000000e+00  0.0000000000000000e+00 0.0000000000000000e+00 0.0000000000000000e+00  0.0000000000000000e+00 0.0000000000000000e+00 0.0000000000000000e+00  0.0000000000000000e+00 0.0000000000000000e+00 0.0000000000000000e+00  0.0000000000000000e+00 0.0000000000000000e+00 0.0000000000000000e+00  0.0000000000000000e+00 0.0000000000000000e+00 0.0000000000000000e+00  0.0000000000000000e+00 0.0000000000000000e+00 0.0000000000000000e+00  0.0000000000000000e+00 0.0000000000000000e+00 0.0000000000000000e+00  0.0000000000000000e+00 0.0000000000000000e+00 0.0000000000000000e+00  0.0000000000000000e+00 0.0000000000000000e+00 0.0000000000000000e+00  0.0000000000000000e+00 0.0000000000000000e+00 0.0000000000000000e+00  0.0000000000000000e+00 0.0000000000000000e+00 0.0000000000000000e+00  0.0000000000000000e+00 0.0000000000000000e+00 0.0000000000000000e+00  0.0000000000000000e+00 0.0000000000000000e+00 0.0000000000000000e+00  0.0000000000000000e+00 0.0000000000000000e+00 0.0000000000000000e+00  -3.7783560442039998e-01 -3.0093868437983051e-01 -5.9750152350996921e-01  -1.9159706820411018e-01 -4.2092591249738992e-01 -6.0606917733013821e-01  3.2737197837909335e-02 -4.6354663017432052e-01 -6.1058543427718304e-01  2.5171046172587452e-01 -4.1396221172211939e-01 -6.2825824836361499e-01  4.2738024906784106e-01 -3.0088622735133730e-01 -6.3851399773484285e-01  5.1933411628960835e-01 -1.1205349567693729e-01 -6.4087881700194460e-01  5.0474500858591875e-01 1.1696258683772864e-01 -6.2417614940550947e-01  0.0000000000000000e+00 0.0000000000000000e+00 0.0000000000000000e+00  0.0000000000000000e+00 0.0000000000000000e+00 0.0000000000000000e+00  0.0000000000000000e+00 0.0000000000000000e+00 0.0000000000000000e+00  0.0000000000000000e+00 0.0000000000000000e+00 0.0000000000000000e+00  0.0000000000000000e+00 0.0000000000000000e+00 0.0000000000000000e+00  0.0000000000000000e+00 0.0000000000000000e+00 0.0000000000000000e+00  0.0000000000000000e+00 0.0000000000000000e+00 0.0000000000000000e+00  0.0000000000000000e+00 0.0000000000000000e+00 0.0000000000000000e+00  0.0000000000000000e+00 0.0000000000000000e+00 0.0000000000000000e+00  -7.6315731182323798e-01 1.0666403871424324e-01 -2.6008654135806036e-01  4.4166297862947324e-01 3.8719915458685500e-01 -1.8714452514630045e-01  -1.2838209856085803e-01 6.8096232448212413e-01 -4.3871995811128978e-01  -1.6261606572369364e-01 4.6479202891592336e-01 -7.8660565820747805e-02  6.4836383537090717e-02 4.6738803405866414e-01 -6.9328507190650215e-02  -9.3078285528359492e-02 6.6305747911981372e-01 -1.8891981561604457e-01  -4.3130223775851717e-01 5.9354480655084707e-01 -1.9433200745464180e-01  -3.1995589913767036e-01 7.1447716617503065e-01 -2.9002464706411135e-01  -4.9952785996070609e-01 5.1741425004876662e-01 -4.2812318628632201e-01  3.7705425748408011e-01 5.9174210485013878e-01 -4.3346293180376122e-01  -6.5784062261639953e-01 5.1176289342590053e-01 -2.6083700157125833e-01  -6.9406234724471294e-01 2.1172658396884617e-01 -4.4052797122186776e-01  9.1338877596463974e-02 7.0387149834196994e-01 -3.1837087151472526e-01  -6.2585502432882001e-01 5.1182350124042775e-01 -3.3116047627730227e-01  -7.9253842117773465e-01 1.6614294557092188e-01 -3.4020451772176807e-01  -4.0314074371960218e-01 3.5170252810782077e-01 -8.8386810454175443e-02  -5.1673426832723157e-01 1.2404479487949030e-01 -7.3055472825334519e-02  -6.7570646952015123e-01 3.2828181105906762e-01 -1.7466188837470228e-01  -7.9709200993766910e-02 7.3594563338439656e-01 -3.7166450349876901e-01  2.1801454740899823e-01 5.8136323702142456e-01 -1.7644807420361491e-01  3.0108263143276870e-01 3.5250853594509385e-01 -6.2763758177770967e-02  3.6511206777322358e-01 5.5420988726972353e-01 -3.1152103972648176e-01  2.5755525929763023e-01 5.4457366786333028e-01 -4.9258249145227118e-01  -6.7313729387988930e-01 1.0865918837822180e-02 -1.4206387785369340e-01  -3.6536236460843979e-01 6.7693894326497595e-01 -3.5601275929732623e-01  5.4368365616877168e-01 3.7578467562022805e-01 -3.4077767206504872e-01  2.4569438887759187e-01 1.3662310655318727e-01 -3.0979422129694314e-02  3.9581303622311109e-01 2.5434138134145334e-01 -6.0291578133366379e-02  1.8781440923252465e-01 2.1706118976205435e-01 -3.4400271951514606e-02  4.1187636807995842e-01 4.4532003209923271e-01 -5.0698222494281331e-01  3.1153204109082649e-01 4.5109995501106409e-01 -5.4401092096296222e-01  1.4414050575458359e-01 5.5555045148588367e-01 -5.1162494697068894e-01  -6.3052674362035710e-01 2.1945733320870370e-01 -5.0411277396527665e-01  -6.2482975841015553e-01 2.8820693484365140e-02 -5.2504928144563545e-01  -6.8661396836993505e-01 -7.8082353431023713e-03 -4.5392715819461332e-01  -5.3230067626472510e-01 -1.0770682944845616e-03 -6.8669774364058273e-02  -3.0915151851482170e-01 3.1305803054642270e-02 -3.7183627066632918e-02  -2.9217091928218714e-01 1.0301321173362650e-01 -3.8753703151879815e-02  4.7592377217499376e-01 2.7225949836023350e-01 -1.1507009565893830e-01  5.1465297017794731e-01 2.8443903071635590e-01 -2.1233605309658349e-01  3.8957574475124312e-01 3.8755337542494250e-01 -1.0915793578825941e-01  5.6850246784415093e-01 2.7564849608687275e-01 -2.9806871852873063e-01  6.0795308916610447e-01 3.4038725538088449e-01 -4.0004868547388339e-01  4.8042176729816494e-01 3.8554280418154746e-01 -2.6273853846633360e-01  5.4268002520161773e-01 4.5337184484859344e-01 -4.4417412542970258e-01  4.7072349741317859e-01 4.6356728346992104e-01 -4.7149646028977438e-01  5.0310333092822079e-01 4.9871485940066440e-01 -4.1607061529837225e-01  3.1786715474937755e-01 5.7423481435001467e-01 -4.5652324000062516e-01  -5.2517871570408076e-02 6.2895243077787222e-01 -4.8288446689309678e-01  -2.3887458491640914e-01 6.1676937732462211e-01 -4.7819800552996827e-01  6.8590682595865288e-02 6.4017120547480399e-01 -4.6987016881495053e-01  -4.2107639608121589e-01 5.2506638329149657e-01 -4.7917851327605887e-01  -5.5233745788705546e-01 3.8536052159553325e-01 -4.9007314620552100e-01  -3.2766371336202355e-01 6.2819898336220337e-01 -4.3374274822046227e-01  -6.2520998472600831e-01 3.7696738737570390e-01 -4.3272570510944952e-01  -6.4754516568128817e-01 -1.2403590661214310e-01 -1.7434648152155330e-01  -5.9443313608992221e-01 -7.1465552828147413e-02 -9.5984203882168162e-02  -6.1955345226631897e-01 8.0526977932005486e-02 -1.0423389300761336e-01  -7.2801160247137797e-01 -9.3293462233583924e-02 -3.3832872770154643e-01  -6.9407316379443640e-01 -8.9120057615201545e-02 -2.4777903158961029e-01  -7.3144608435907332e-01 6.3778722643715063e-02 -2.0168037811920289e-01  -7.4254429672407873e-01 -2.9808232398231868e-02 -4.0029391965411820e-01  -7.5137441660379234e-01 -7.0997883657991118e-02 -3.7475363393920175e-01  -7.8649587264233611e-01 1.4095009992100491e-01 -3.0757206321489511e-01  -7.5645313614138920e-01 1.9445745528563044e-01 -3.7869241177470903e-01  -2.5111408752059849e-01 1.7492238941149821e-01 -4.6580365004938500e-02  -1.9704118404342008e-01 2.3953574251444804e-01 -5.1473726965698068e-02  -4.7499235987560751e-01 2.4175647879101739e-01 -8.3692000111846770e-02  -1.2114954194598422e-01 2.7104166145625186e-01 -4.9748824749720991e-02  -5.0589619737653059e-02 2.8718185090125309e-01 -4.5430002317016500e-02  -2.8579980498502083e-01 4.2505872904507858e-01 -8.7446418320450581e-02  2.5212288863012685e-02 2.9068282262521594e-01 -4.2310676630819707e-02  1.0462040247664658e-01 2.5628243734325640e-01 -3.4051234978504916e-02  -5.2133369786280755e-02 4.7391397340471392e-01 -6.9573544974501439e-02  1.8427056840787742e-01 4.2209416562351176e-01 -6.3982271392496043e-02  -7.5276483020363161e-01 3.2208132455253363e-01 -2.5571732482163551e-01  -7.5329291359471617e-01 3.5615322912766623e-01 -2.9219479923731490e-01  -6.8420022135973846e-01 4.3190963146033934e-01 -2.2023225844002817e-01  -7.4230087924481947e-01 2.3484777153015879e-01 -2.1078302560604600e-01  -6.9898342396175628e-01 1.7039482112257906e-01 -1.5830415438700790e-01  3.4207933834773241e-01 4.9286408533693132e-01 -1.7934617205231626e-01  2.7881190212271761e-01 4.8477912191341160e-01 -1.0756219518713404e-01  2.8401898382287827e-01 5.7120603924438063e-01 -2.3777485931793721e-01  4.0258993141696137e-01 4.7343712189565706e-01 -2.5122119245547525e-01  4.6144727843329419e-01 4.7495143271342094e-01 -3.3161776955406086e-01  -2.4623183327445586e-01 6.9124325752660964e-01 -3.9680573921400647e-01  -4.4054150734023884e-01 6.0962597095377247e-01 -3.8591870347515606e-01  1.3022889442422964e-01 6.7507271623964460e-01 -4.3375650855849079e-01  1.5989247101343662e-01 7.0036849259283163e-01 -4.0662482906818842e-01  -9.9242163045704976e-02 7.1686116370574071e-01 -4.0390181495164990e-01  -2.2597718182432611e-01 7.1960259145291039e-01 -3.6293205098978076e-01  -1.4399380331382045e-01 5.8169152722387552e-01 -1.2348322474312956e-01  -5.3114601351145225e-03 5.8421910358767437e-01 -1.2068781664280748e-01  -3.0238042679619620e-01 5.4902104451342548e-01 -1.3132886474240382e-01  -2.6393336603332851e-01 6.4846741613057146e-01 -1.9277450015071365e-01  -4.4224488329004974e-01 4.8166975507330878e-01 -1.3873166221895980e-01  6.9207229889604371e-02 6.4048438182269152e-01 -1.7935739973805792e-01  1.4737650175698194e-01 5.5129209061191131e-01 -1.1608982013009890e-01  -3.9084754274804495e-01 6.7307864514064408e-01 -2.4726247721046957e-01  -2.0713903839197864e-01 7.1359740262603533e-01 -2.5366792238676084e-01  -1.1004401816634223e-01 7.3344367184237669e-01 -3.0860842946278932e-01  -8.2548257828458736e-03 6.9954047906833239e-01 -2.4843241032178026e-01  1.5658185257535950e-01 6.5076177510838551e-01 -2.5193913097063281e-01  -5.5727130962435245e-01 5.7881020034888608e-01 -2.3189210902652474e-01  -5.0685673213031479e-01 6.3757076602633345e-01 -2.7247788848763937e-01  -5.7769545621260920e-01 4.8063647720330194e-01 -1.8489921892559258e-01  -5.5718171867470245e-01 3.5986928021471132e-01 -1.3111359765097463e-01  -6.4791185235489646e-01 5.1867008324098884e-01 -2.9391247591889968e-01  -4.8797976482816730e-01 6.4061795630716045e-01 -3.0502991284974301e-01  -2.0782672246396935e-01 7.3032890776749115e-01 -3.3250470887558242e-01  1.4748926507008498e-02 7.3130681546115195e-01 -3.5214604693083174e-01  -5.0555112830394611e-01 6.0819160099625524e-01 -3.3804852137659175e-01  -3.4727644971454541e-01 7.0188374432359490e-01 -3.2349107097548885e-01  -5.6599294626777286e-01 5.2241863799017563e-01 -3.7559414431312127e-01  -6.8471265802355263e-01 3.7536194113199384e-01 -3.7897376730969817e-01  2.3990812161711977e-01 6.8005458501214533e-01 -3.8946978712598779e-01  3.9161966206518795e-01 5.9345059111445442e-01 -4.0044526536763120e-01  2.3949059857975624e-01 6.4318556078459821e-01 -3.1849574157537897e-01  -7.4236025573621567e-01 3.5425458446609037e-01 -3.2492694774186803e-01  -6.2210110269766183e-01 2.2506251109655037e-01 -1.2308673646824109e-01  5.8958219268737823e-02 -4.3986707952242071e-01 -2.5850849369647877e-01  -2.9440255253337727e-01 3.6205532957678643e-02 -1.6442870744961549e-02  -3.0859470303952519e-01 -3.9364117774264668e-01 -4.4235029980065038e-01  -2.8890693517919763e-01 -7.4909365164246594e-02 -3.5915695402657107e-02  -1.1036117406914157e-01 -2.3511516782272188e-01 -5.9762202656343279e-02  -5.1715969043037524e-01 -2.0394634096835260e-01 -4.2660331047973415e-01  -5.8503577374925830e-01 5.6923367335896459e-02 -3.9490873749792033e-01  -2.1267989196873882e-01 3.0742599331964843e-01 -6.6236199081977018e-02  -5.1043568545553464e-01 -2.3934571860840659e-01 -3.5734267498524164e-01  -4.1872522000768053e-01 3.9751643708778223e-01 -3.1814181848113793e-01  -2.6932255118910969e-01 -4.3030885230789689e-01 -3.7013654363816256e-01  -3.7637313169448328e-01 -3.2330544062701677e-01 -2.4302785223998116e-01  -1.7433736025011262e-01 -4.1373289342343283e-01 -2.5004926373493541e-01  -2.5894985214056598e-01 -3.1806338281621016e-01 -1.7104207745667299e-01  -4.6874873443159015e-01 -4.6401316766764490e-02 -1.3360149305643246e-01  -4.6392011237294239e-01 1.3508181477685399e-01 -1.2244431677179340e-01  -7.4196674197109611e-02 -4.7528363189821304e-01 -3.6500193174533840e-01  -5.7158474868125475e-01 5.6486427522979890e-04 -2.4921058756889403e-01  -5.6009953262810519e-01 1.8547767336384635e-01 -2.6264947735714111e-01  4.4635690627022780e-02 -3.4956861161064451e-01 -1.5996038914901489e-01  -3.7314072986770180e-01 2.8133714932677140e-01 -1.1428720028877482e-01  -2.2772517061853417e-01 -1.9117287262953564e-01 -6.6934171370277004e-02  -1.2508762567082754e-01 -4.3129883708441885e-01 -4.5277420839789789e-01  -3.4821398576070715e-02 -3.9075985942574049e-01 -2.0214855561480560e-01  -2.5985879654421074e-01 1.4569753759633144e-01 -1.6222284758299108e-02  -3.0962066371606423e-01 4.2438100699002740e-01 -1.9872578412458242e-01  7.5390585715412434e-02 -4.8106273266832028e-01 -3.5100770783836305e-01  1.3490803700165969e-02 -4.7157946604563894e-01 -4.8597453164600707e-01  -4.7889471039468434e-01 3.3138407426094274e-01 -3.8624152620101193e-01  -1.7206572602270737e-01 1.7704444272109829e-01 -1.898714805