<?xml version="1.0"?>
<VTKFile type="UnstructuredGrid"  version="0.1"  >
<UnstructuredGrid>
<Piece  NumberOfPoints="1268" NumberOfCells="4847">
<Points>
<DataArray  type="Float64"  NumberOfComponents="3"  format="ascii">1.994716987487452 0.01317707561264319 -1.202466945460223e-11  1.374072606111497 -0.08614134488653273 -5.388997575085332  -1.285941478930618 0.1916557790035214 -5.691288663606836  -1.59032616235459 -0.4515196446136259 1.626303258728257e-17  0.4950030257755884 2.521650519233041 -5.495391852657774  -0.4107718940653654 -2.429115409112172 -5.58531208084276  -0.9314707163843408 -3.006923447963563 4.87890977618477e-17  1.161824811771535 2.948440156756841 -3.391384395534658e-14  2.146749234505421 0.002696741478414759 -0.5615078450779066  2.330988047973839 -0.000873250973709995 -1.113141311680313  2.540713632977715 -0.1384292375506191 -1.637427654548237  2.645241452520652 -0.2872312815961211 -2.18637082393926  2.504842461151312 -0.2752146673621067 -2.746850782899552  2.287876352721185 -0.2088259978706829 -3.283011632728322  2.137771360922677 -0.2093380261300688 -3.844996501809416  1.970142554575494 -0.2193701374385486 -4.401638277082749  1.701580801829277 -0.1696632515169769 -4.915066532844666  1.398049690886424 0.4419377546899956 -5.387643705321969  1.183972204621215 0.9208338616597355 -5.413149504812257  0.7621482426349403 1.234356207118232 -5.461782499987256  0.2539805730796886 1.370727420898931 -5.519751404145364  -0.2689415860383004 1.319053689498898 -5.578906487138381  -0.7357170559581984 1.076180709179107 -5.631191713357971  -1.086003096318238 0.6812820615514149 -5.669884670156524  -1.65706961757681 -0.5275128747266272 -0.6240725009925172  -1.829082870387909 -0.8347372240299333 -1.153553189134448  -2.030635262011336 -1.097965926806997 -1.693320688638939  -2.148557703924963 -0.9683820133813712 -2.295450526931833  -2.119047321408695 -0.7521727279271558 -2.890676896601294  -1.972500555455803 -0.7106310836492745 -3.509380855831461  -1.885028119342598 -0.4902108162504233 -4.093718100793141  -1.832050776792238 -0.1313823297003599 -4.617858136599065  -1.636180550340053 0.1151199882480144 -5.165527944859976  -1.540434086810702 0.1014447694855235 -7.644826989049428e-17  -1.339902801239663 0.6191128040412099 2.218327606354497e-17  -0.9949589579071262 1.053322092476122 2.12059320661159e-17  -0.5243975458638882 1.346285776146202 7.754217898549941e-16  0.01399251627036286 1.481823287560149 3.252316763596149e-17  0.5696211504784076 1.47677978548424 -7.207855520904863e-17  1.105448032340458 1.331487337928338 1.951563910473908e-16  1.561367740818086 1.018090979386763 -2.179459114756194e-16  1.860006992193919 0.551530302300456 1.369433074745588e-16  -0.152869286718376 2.506583809965366 -5.568804938302105  -0.7781210310064858 2.335338381675429 -5.639249366957451  -1.340550096787874 2.011723800088065 -5.702178028336585  -1.803922993566052 1.555830170950866 -5.753534898075912  -2.144678763029901 1.000979069722826 -5.790734833138769  -2.346903237737564 0.3811866585909049 -5.812061421922149  -2.406990243842066 -0.2684488461825228 -5.817196438260218  -2.318433628103212 -0.9144163570965761 -5.805488779558074  -2.059391262210163 -1.511004864267824 -5.774580158166454  -1.615755841275718 -1.983465489741105 -5.72306417450185  -1.043145925381342 -2.287058241276404 -5.657361969815248  -0.6986882361605687 -2.420627649803484 -5.024556445072709  -0.8272574030199392 -2.685291244074475 -4.476216325063944  -0.8113210073272845 -3.118860027310894 -4.01596683617901  -0.7618552434953355 -3.481598098596065 -3.504026669625047  -0.7509882165597778 -3.609083979854663 -2.886473298216772  -0.7986167670519319 -3.732483084086931 -2.268445488219849  -0.8276969497603353 -3.810997815301134 -1.64593496945388  -0.7425506523451623 -3.557242155569485 -1.078322423839125  -0.7147449622328144 -3.21189056194362 -0.5511080601316157  -1.482234509376526 -2.778582553401298 -5.854479658363816e-16  -1.970737176894139 -2.437284655419533 2.764697292186607e-16  -2.362818572203899 -1.988727212877528 2.439101268600111e-16  -2.642390785384022 -1.462244173776716 5.051059276813266e-16  -2.812149102113852 -0.89052423419162 2.276851973687203e-16  -2.877946727920729 -0.2976446157883296 -1.219909928720168e-16  -2.842947107925845 0.2978601752284433 4.065446096494693e-17  -2.70313036896374 0.8776122116387211 -5.041496169361013e-16  -2.452324348076021 1.418519584933707 4.379274460317988e-16  -2.098265626135573 1.898294456130726 1.951060033519619e-16  -1.658391347368763 2.301023318502569 -1.789574489620802e-16  -1.154148079923361 2.619757341302747 -2.081203863085907e-15  -0.6042202207747882 2.851073703499478 -3.577841418755692e-16  -0.02416138323675775 2.990516581461941 4.065982498622179e-16  0.5710641261211448 3.028216945076794 -1.46882551317968e-16  0.6414151130412097 2.696325287154043 -4.983333021490838  0.771852374565919 2.778456367279237 -4.445188759107248  0.8805845204306011 2.73078881179073 -3.897720120696569  0.9481597620953167 2.69798349057175 -3.343104559074628  0.9815370707090804 2.778214865778854 -2.789250505759619  1.013475345489448 2.861817704396183 -2.235671116027784  1.055849759321274 2.898356228459238 -1.677594140621302  1.093646323460014 2.92793989028903 -1.118725590781912  1.124098871622056 2.957526991478201 -0.5594169689370629  0.2477015793419729 -2.415655802610486 -5.510682951113449  0.8844491790088972 -2.245867158009595 -5.438931443942415  1.464891069119211 -1.932330028996181 -5.373934600293736  1.955087092649627 -1.489613175355717 -5.319502697776375  2.318355026965356 -0.937054784961175 -5.279744576064058  2.524994411863564 -0.307899182343253 -5.257941630215678  2.574632820450045 0.3531084349228537 -5.254020561031156  2.465743861849647 1.006614152640354 -5.268052816559671  2.183897076015212 1.604484044160622 -5.301550147358176  1.722560240631265 2.07491696755195 -5.35506775502591  1.13806318635062 2.378906583716481 -5.422118662603529  1.742182153284979 2.73179858498085 5.854691697147836e-16  2.262480931380501 2.395264875892136 -2.601681534737615e-16  2.698000706832733 1.954727370266727 -3.903113804560263e-16  3.021530388777258 1.426473918441798 1.707421408502106e-16  3.223363606607101 0.8405687193648443 -2.844806418042028e-16  3.305434793487241 0.2261994274297442 -4.472186606099012e-16  3.269241566985055 -0.3926051469820059 3.171555149681837e-16  3.113478077610213 -0.9924495549400153 3.510830505762065e-16  2.840400132149515 -1.548806515270482 -1.707368614952523e-16  2.466120284856568 -2.042983582774378 9.732831365154574e-17  2.008125599488538 -2.460814027017948 -3.577575055983979e-16  1.482521285196868 -2.789563899556613 -4.886146623064541e-17  0.9057866143556688 -3.01678997208197 -2.439392613813594e-16  0.2964958724913082 -3.130681163554852 3.414395345104792e-16  -0.32338307292875 -3.126978161260848 2.926910878106614e-16  -1.29067345658392 -0.3506098753383553 -5.690421630247788  -1.068897680254163 -0.8451623229646739 -5.663999894259847  -0.6782440885714781 -1.219621806060448 -5.6187489875115  -0.168757542531344 -1.390394566692369 -5.560546895724229  0.3611301401510615 -1.294122251639114 -5.500717901478111  0.8191548613516448 -1.005201308695582 -5.449538098373106  1.16817203978903 -0.5892762115769014 -5.411042670828763  1.960898302630318 -0.551652302616722 -8.131516293641286e-17  1.751009740180289 -1.077278642631261 7.445724005953314e-16  1.394016468000002 -1.516729095803803 1.136104663605282e-15  0.9227767039454898 -1.830301465573364 3.434443593283319e-16  0.3780412068884804 -1.984007749105097 8.617772484356591e-16  -0.1885780664025548 -1.977994130030172 2.357202029695971e-16  -0.7327557451871473 -1.821291124380143 1.942410916395698e-17  -1.191068596016128 -1.491774666596192 2.975009434367945e-16  -1.480405544894888 -1.006855825633415 6.954512630084263e-16  -1.812414118534285 0.2561131097252937 -2.664867827914479  2.421751940242729 0.6298287624476981 -1.933377861698098  0.7556418177061754 1.42269463362527 -4.617654324361507  0.003134751711410342 1.574821943356493 -0.9318675177876981  1.015098001669947 1.51699057942374 -0.9441494884276413  0.6193243625380082 1.764115149411371 -1.862230514405671  -0.4757031201037318 1.549728101933577 -1.958273018773558  0.1126459993007786 1.698838152590054 -2.957602797129454  -0.3405660022430232 1.569615851499001 -4.678135257405353  1.818199099779932 0.7365610114574719 -3.763003518505052  -0.9541815370276669 1.23451227632913 -2.875526912859068  -1.269464226480212 1.016489154450913 -4.672047638709048  1.301562892980348 1.557566760682666 -2.802482532053872  -0.7813756340336595 1.414221906310649 -3.725761628685261  -1.58370798409762 0.5643609111372817 -3.581008460136619  -0.988817348255397 1.158392548936659 -1.014254585170146  -1.607700527190565 0.2800106654898483 -1.030081240453645  -1.388203055800784 0.7951310659851955 -1.943712885648593  0.8261955720421881 1.570157055202129 -3.620947225245673  1.681455131778566 1.410849015379531 -1.876189895849114  1.878739160554727 0.943024132521903 -0.9866418074548234  2.103426639579445 1.000735947836943 -2.593434794762663  1.62623803052506 0.6468498306152269 -4.727220189271843  -1.882943490361709 -0.1546739965127431 -1.761716647663214  0.05868355051519467 1.656538949473053 -3.863342338366238  2.465845305360337 0.2632819454094029 -2.663569745038379  1.994842599423799 0.5019775153043848 -0.4779055074204815  2.1671824130763 0.4980244878585698 -1.027636182799239  1.710213566460811 0.9718796190568162 -0.4957578884333736  1.845584590132108 0.2253887364997403 -4.583879812097906  1.579035044615276 0.2924902970866011 -5.101748935835201  1.409777182251665 0.7868327264427526 -5.07202467441607  -1.039178737375989 1.089168173550246 -5.170746090958521  -1.377687418630729 0.6683636420802941 -5.233117919580046  -1.641402128985454 0.4875654733502939 -4.648722230221863  -1.765467255797776 -0.2695484060062747 -1.079683539430899  -1.617858736076732 -0.08318463488274264 -0.5123563299218489  -1.474019211051276 0.4496529111656123 -0.5150171376928306  2.417677350191343 0.3274903893149403 -1.506992657970159 
[...]
<PointData  Vectors="displacement"> 
<DataArray  type="Float64"  Name="displacement"  NumberOfComponents="3" format="ascii">0.0000000000000000e+00 0.0000000000000000e+00 0.0000000000000000e+00  3.7545823483117668e-01 3.1228302090541776e-01 -5.5046908029390962e-01  -4.8458750770630332e-01 -1.3333412701680042e-01 -5.4982456184908235e-01  0.0000000000000000e+00 0.0000000000000000e+00 0.0000000000000000e+00  -4.4828732635324137e-01 3.4370114587478839e-01 -3.9472280084563799e-01  3.0579125574901239e-01 -2.6784258017309454e-01 -5.7583160309742742e-01  0.0000000000000000e+00 0.0000000000000000e+00 0.0000000000000000e+00  0.0000000000000000e+00 0.0000000000000000e+00 0.0000000000000000e+00  2.8987402390110883e-01 6.6003421026270492e-02 -2.7145807526087078e-02  4.4714316214543859e-01 1.3471741025090975e-01 -6.2841199966041678e-02  5.1832487454629961e-01 1.5424418069166898e-01 -1.3164879857237954e-01  5.5843530931068597e-01 1.7067160622794209e-01 -2.3173164445085470e-01  6.0952039855051798e-01 2.2003122364392916e-01 -3.4608323010535746e-01  6.2586403582602756e-01 2.7539814801308521e-01 -4.1866248635276909e-01  5.8649567876267805e-01 2.9796706602190248e-01 -4.5257972026673288e-01  5.1661100149540506e-01 3.0453577417958100e-01 -4.8528521900313071e-01  4.4698958610421402e-01 3.1417435541248956e-01 -5.2329405886321334e-01  1.9667644794373576e-01 4.5763603492288041e-01 -5.1356489716752274e-01  5.6276605178489343e-03 5.2855468539149486e-01 -4.9392011464478425e-01  -1.7397337446620667e-01 5.4297336430664878e-01 -4.7748081671512538e-01  -3.3333498095174041e-01 4.8292877441074999e-01 -4.9061178002170897e-01  -4.5946018419547974e-01 3.7134887623846968e-01 -5.0243389852019682e-01  -5.3186037903836059e-01 2.2040758056679427e-01 -5.2178515254307389e-01  -5.4656682627728381e-01 4.6198955260409867e-02 -5.3799672797601261e-01  -3.3962771120147850e-01 -3.3804501569628408e-02 -3.4136392210002656e-02  -4.7350621648447044e-01 -1.3050322157311145e-01 -5.0995839917847369e-02  -4.9348871015696461e-01 -2.3018378580075652e-01 -1.1635899817368067e-01  -5.4167032237872992e-01 -2.4595241686823807e-01 -2.1816496262964472e-01  -5.8712126349911475e-01 -2.4527563610558770e-01 -3.1024963144990575e-01  -5.8595622687514215e-01 -2.8565765901331880e-01 -3.8279627084739881e-01  -5.7554019900444031e-01 -2.7736966720690048e-01 -4.1500295196396586e-01  -5.6268796263493526e-01 -2.1941421439245243e-01 -4.4158221385438406e-01  -5.3022221013505821e-01 -1.7552246333515403e-01 -4.9658091493136503e-01  0.0000000000000000e+00 0.0000000000000000e+00 0.0000000000000000e+00  0.0000000000000000e+00 0.0000000000000000e+00 0.0000000000000000e+00  0.0000000000000000e+00 0.0000000000000000e+00 0.0000000000000000e+00  0.0000000000000000e+00 0.0000000000000000e+00 0.0000000000000000e+00  0.0000000000000000e+00 0.0000000000000000e+00 0.0000000000000000e+00  0.0000000000000000e+00 0.0000000000000000e+00 0.0000000000000000e+00  0.0000000000000000e+00 0.0000000000000000e+00 0.0000000000000000e+00  0.0000000000000000e+00 0.0000000000000000e+00 0.0000000000000000e+00  0.0000000000000000e+00 0.0000000000000000e+00 0.0000000000000000e+00  -5.0224395168001090e-01 2.4837609884857725e-01 -4.0177234386158023e-01  -5.3382262398240043e-01 1.3970099092521096e-01 -4.0769150900456119e-01  -5.3573672546465434e-01 2.8553568577819943e-02 -4.2003294816737102e-01  -5.0226946324388233e-01 -8.3524199210360653e-02 -4.2731740329898732e-01  -4.4489543672541360e-01 -1.9687293557717364e-01 -4.3531259549529794e-01  -3.5086444257464583e-01 -2.9451082747132062e-01 -4.4663393744566904e-01  -2.3599809602535471e-01 -3.6191347566602683e-01 -4.5178701805143573e-01  -1.0722108225961320e-01 -3.9628514329222525e-01 -4.5887562421405909e-01  2.8844859750913755e-02 -3.9901034305884797e-01 -4.8105627740269058e-01  1.1235210831939731e-01 -3.7217978583802991e-01 -5.0246075693453451e-01  2.0610672594047594e-01 -3.2372522940639176e-01 -5.3302646813776100e-01  2.3194146570100616e-01 -4.2242524349789595e-01 -5.3662789324519566e-01  2.0304958816381569e-01 -4.8888513804398320e-01 -4.6981615580367625e-01  2.1053138604465307e-01 -4.7681427381603780e-01 -3.7894924387066131e-01  2.0925022286334449e-01 -4.4542348490875083e-01 -3.1139622076420992e-01  1.9385320089128330e-01 -4.2847054892681424e-01 -2.5999420130788792e-01  1.5833056512331853e-01 -3.8100873616485909e-01 -1.8654198044374412e-01  1.4212060599329354e-01 -3.1741691728203802e-01 -1.3631943347225017e-01  1.0327410045403698e-01 -2.7517851272463550e-01 -8.9341792699453415e-02  5.1391190009158594e-02 -1.7856188250950367e-01 -2.1869826416741837e-02  0.0000000000000000e+00 0.0000000000000000e+00 0.0000000000000000e+00  0.0000000000000000e+00 0.0000000000000000e+00 0.0000000000000000e+00  0.0000000000000000e+00 0.0000000000000000e+00 0.0000000000000000e+00  0.0000000000000000e+00 0.0000000000000000e+00 0.0000000000000000e+00  0.0000000000000000e+00 0.0000000000000000e+00 0.0000000000000000e+00  0.0000000000000000e+00 0.0000000000000000e+00 0.0000000000000000e+00  0.0000000000000000e+00 0.0000000000000000e+00 0.0000000000000000e+00  0.0000000000000000e+00 0.0000000000000000e+00 0.0000000000000000e+00  0.0000000000000000e+00 0.0000000000000000e+00 0.0000000000000000e+00  0.0000000000000000e+00 0.0000000000000000e+00 0.0000000000000000e+00  0.0000000000000000e+00 0.0000000000000000e+00 0.0000000000000000e+00  0.0000000000000000e+00 0.0000000000000000e+00 0.0000000000000000e+00  0.0000000000000000e+00 0.0000000000000000e+00 0.0000000000000000e+00  0.0000000000000000e+00 0.0000000000000000e+00 0.0000000000000000e+00  0.0000000000000000e+00 0.0000000000000000e+00 0.0000000000000000e+00  -4.1920106813757002e-01 3.8288059669831759e-01 -3.7311840910067318e-01  -3.7140029543502590e-01 4.2164462826613192e-01 -3.5042100482884320e-01  -2.9940354050733281e-01 4.5778628287678463e-01 -3.1715978013107615e-01  -2.2474267528909000e-01 4.7565268786969289e-01 -2.6367492496158662e-01  -1.7960492806614489e-01 4.5587058609523184e-01 -2.0084297402578585e-01  -1.4047104626714763e-01 4.0707198758106766e-01 -1.3396622203727293e-01  -1.0673704300842624e-01 3.3574680483899100e-01 -7.0485948206715415e-02  -7.9974415264738988e-02 2.3051267048916174e-01 -8.9164400702817555e-03  -4.2622512410148423e-02 1.1542912994507643e-01 2.9942233327511031e-02  3.9649985774760566e-01 -1.8562425313465436e-01 -6.0026905343045289e-01  4.6912173494629977e-01 -7.3286108330576860e-02 -6.0103696834221521e-01  4.9148599564206680e-01 7.0395411155125251e-02 -5.8591457106733069e-01  4.6841882549219843e-01 2.2166874783903712e-01 -5.4845147346550693e-01  3.8088585060603047e-01 3.5712630233759829e-01 -5.0869865471439291e-01  2.5878908386717053e-01 4.6043567144773290e-01 -4.7070912895150618e-01  1.1604050115344289e-01 5.2368759110745411e-01 -4.3861891802610942e-01  -3.7571087397969910e-02 5.5425119469559603e-01 -4.2279731546910870e-01  -1.7149639421857699e-01 5.2967686141846315e-01 -4.0366156031079464e-01  -2.8241459132673813e-01 4.9194965136550550e-01 -3.9436563821399467e-01  -3.6676203676103897e-01 4.2635277904184798e-01 -3.8921850637119987e-01  0.0000000000000000e+00 0.0000000000000000e+00 0.0000000000000000e+00  0.0000000000000000e+00 0.0000000000000000e+00 0.0000000000000000e+00  0.0000000000000000e+00 0.0000000000000000e+00 0.0000000000000000e+00  0.0000000000000000e+00 0.0000000000000000e+00 0.0000000000000000e+00  0.0000000000000000e+00 0.0000000000000000e+00 0.0000000000000000e+00  0.0000000000000000e+00 0.0000000000000000e+00 0.0000000000000000e+00  0.0000000000000000e+00 0.0000000000000000e+00 0.0000000000000000e+00  0.0000000000000000e+00 0.0000000000000000e+00 0.0000000000000000e+00  0.0000000000000000e+00 0.0000000000000000e+00 0.0000000000000000e+00  0.0000000000000000e+00 0.0000000000000000e+00 0.0000000000000000e+00  0.0000000000000000e+00 0.0000000000000000e+00 0.0000000000000000e+00  0.0000000000000000e+00 0.0000000000000000e+00 0.0000000000000000e+00  0.0000000000000000e+00 0.0000000000000000e+00 0.0000000000000000e+00  0.0000000000000000e+00 0.0000000000000000e+00 0.0000000000000000e+00  0.0000000000000000e+00 0.0000000000000000e+00 0.0000000000000000e+00  -3.5784795796918634e-01 -2.9540693671154744e-01 -5.5592871810452127e-01  -1.7691480770666596e-01 -4.0905478789517624e-01 -5.6410143440805705e-01  4.0098031607667853e-02 -4.4822318659426691e-01 -5.6811729528317023e-01  2.5084275656249971e-01 -3.9776490696297739e-01 -5.8566711054517406e-01  4.1893435201521878e-01 -2.8766978528130094e-01 -5.9554196024451356e-01  5.0460118945600929e-01 -1.0438133285117708e-01 -5.9756671795166350e-01  4.8690846188333825e-01 1.1642889320412013e-01 -5.8163962337179320e-01  0.0000000000000000e+00 0.0000000000000000e+00 0.0000000000000000e+00  0.0000000000000000e+00 0.0000000000000000e+00 0.0000000000000000e+00  0.0000000000000000e+00 0.0000000000000000e+00 0.0000000000000000e+00  0.0000000000000000e+00 0.0000000000000000e+00 0.0000000000000000e+00  0.0000000000000000e+00 0.0000000000000000e+00 0.0000000000000000e+00  0.0000000000000000e+00 0.0000000000000000e+00 0.0000000000000000e+00  0.0000000000000000e+00 0.0000000000000000e+00 0.0000000000000000e+00  0.0000000000000000e+00 0.0000000000000000e+00 0.0000000000000000e+00  0.0000000000000000e+00 0.0000000000000000e+00 0.0000000000000000e+00  -7.2875392745803502e-01 1.0003545756042237e-01 -2.4437681063961325e-01  4.2026381384504313e-01 3.7040163260110193e-01 -1.7639028595826917e-01  -1.2882025354571824e-01 6.5151355994591187e-01 -4.0575279713603907e-01  -1.5383864122516147e-01 4.4071369631306540e-01 -7.7832986826911060e-02  6.1842830161335127e-02 4.4278479755918265e-01 -6.8510376705027853e-02  -9.0485780802985250e-02 6.3207746595278769e-01 -1.7903404115526694e-01  -4.1309122977658702e-01 5.6551948560279786e-01 -1.8396357792141801e-01  -3.0969638594614685e-01 6.8236772574550264e-01 -2.7063126817084598e-01  -4.8351099044974827e-01 4.9189153306699385e-01 -3.9616715008849551e-01  3.5837391952224751e-01 5.6945908403019219e-01 -4.0454292270229519e-01  -6.3109975257722850e-01 4.8741972841209358e-01 -2.4375654956783149e-01  -6.6709979495289473e-01 1.9718650807573040e-01 -4.0893962364318970e-01  8.4043551038615397e-02 6.7379354295729910e-01 -2.9878075426953526e-01  -6.0240515383842574e-01 4.8682655846720935e-01 -3.0738831151642626e-01  -7.5871269934012664e-01 1.5521530705283562e-01 -3.1717328815566226e-01  -3.8266988614741060e-01 3.3402652477105865e-01 -8.7118354787130120e-02  -4.9041461633208683e-01 1.1845343351532628e-01 -7.2307456701997369e-02  -6.4488948733866636e-01 3.1214743628203451e-01 -1.6580826726472941e-01  -8.0945981203304110e-02 7.0424873882360384e-01 -3.4573484777551761e-01  2.0624352378400682e-01 5.5472180505428359e-01 -1.6657972171242319e-01  2.8597339424224094e-01 3.3333418204287396e-01 -6.1593884943915621e-02  3.4695717107327412e-01 5.3162960476959664e-01 -2.9319580909318421e-01  2.4275852875998727e-01 5.2520751531188214e-01 -4.5725767755087127e-01  -6.4052191674313685e-01 1.0379637889447376e-02 -1.3503840697007219e-01  -3.5443670552228068e-01 6.4607874385396402e-01 -3.2989791018617587e-01  5.1961300131788879e-01 3.6220133660357334e-01 -3.2123769776520539e-01  2.3340201771403360e-01 1.2757215591134008e-01 -3.1983007700637861e-02  3.7586898684826164e-01 2.4004864178903149e-01 -5.8770727967014304e-02  1.7862137281926690e-01 2.0413707542215032e-01 -3.5422451367383423e-02  3.9296485433406497e-01 4.3122669383386392e-01 -4.7224875594074156e-01  2.9603107107268839e-01 4.3637456375649014e-01 -5.0562945134159099e-01  1.3326529553216496e-01 5.3502234064641163e-01 -4.7418581058492670e-01  -6.0731289364420415e-01 2.0464588897867844e-01 -4.6819593109574376e-01  -5.9973953904422639e-01 2.1069976430891469e-02 -4.8848657678258278e-01  -6.5729269261139678e-01 -1.3597513819560633e-02 -4.2264008761014449e-01  -5.0521715997917638e-01 6.6305157511460698e-05 -6.7661109086860530e-02  -2.9309575424947915e-01 3.1036941057321348e-02 -3.8369643095604838e-02  -2.7664681254264223e-01 9.8779319562762383e-02 -4.0049864991275642e-02  4.5283919678803203e-01 2.5920701059434753e-01 -1.0913592279069524e-01  4.9071587496706687e-01 2.7286531733482994e-01 -1.9991526307194885e-01  3.7011781793605492e-01 3.6850879154724880e-01 -1.0394723091587046e-01  5.4361371015312676e-01 2.6568299519111960e-01 -2.8114869073543464e-01  5.8224132049644128e-01 3.2900636634381630e-01 -3.7691698602429374e-01  4.5798061147866731e-01 3.7035304398810132e-01 -2.4743471310027532e-01  5.1905277871448152e-01 4.3761700090997641e-01 -4.1640068818724429e-01  4.4961895100646498e-01 4.4826509155121042e-01 -4.4016831284463209e-01  4.8036236809424626e-01 4.8037647382878518e-01 -3.9094706994906503e-01  3.0100070957076658e-01 5.5328326277449735e-01 -4.2451995889838617e-01  -5.6385659635488743e-02 6.0304240743778292e-01 -4.4646333113296743e-01  -2.3511475162850362e-01 5.8934008247701597e-01 -4.4208684800894388e-01  6.0242213484534748e-02 6.1463117316760230e-01 -4.3514154522085691e-01  -4.0933306189671498e-01 4.9998774009882790e-01 -4.4344069622680926e-01  -5.3418760252993414e-01 3.6458333903539386e-01 -4.5382199107741700e-01  -3.1941915192954140e-01 5.9937826791215798e-01 -4.0136925583186178e-01  -6.0304613592117640e-01 3.5632085298168853e-01 -4.0089389766770350e-01  -6.1586742677101147e-01 -1.1870752264734193e-01 -1.6432638048877288e-01  -5.6481765660476080e-01 -6.7349373699970586e-02 -9.1933736618985365e-02  -5.8899175169355344e-01 7.6951113964587758e-02 -1.0054497581295802e-01  -6.9428959766280685e-01 -9.2316585718285021e-02 -3.1762706157036846e-01  -6.6099827547250845e-01 -8.6433138686749914e-02 -2.3313855047354629e-01  -6.9728115852897488e-01 6.0061408353204164e-02 -1.9025180881717579e-01  -7.0959586383611595e-01 -3.3746060827976251e-02 -3.7293758730321808e-01  -7.1705548152148635e-01 -7.1981415577071897e-02 -3.5066593983969507e-01  -7.5201851531938479e-01 1.3189801316379224e-01 -2.8786896159941577e-01  -7.2546333321808376e-01 1.8137137677321163e-01 -3.5167443102032447e-01  -2.3756939270511343e-01 1.6658897657423352e-01 -4.7333619276049399e-02  -1.8589620800761442e-01 2.2736183949745248e-01 -5.2315353823410175e-02  -4.5081622660128789e-01 2.2997220121742762e-01 -8.2835929040955755e-02  -1.1378249179202334e-01 2.5724906229932898e-01 -5.0457345860723736e-02  -4.7035842790090043e-02 2.7221968284638137e-01 -4.6524886998109166e-02  -2.7104604550992922e-01 4.0337780579666555e-01 -8.6270009885636101e-02  2.4874479836053065e-02 2.7483712873374944e-01 -4.3432096843875487e-02  1.0005973900252434e-01 2.4186071541341730e-01 -3.5188717942720174e-02  -4.9046265822238186e-02 4.4914161086094007e-01 -6.9092511040705074e-02  1.7503330021135097e-01 3.9956447293589625e-01 -6.3075725039629993e-02  -7.2027874012253890e-01 3.0593541572304295e-01 -2.3956249081183903e-01  -7.2214673800479823e-01 3.3792691949090964e-01 -2.7230196501539605e-01  -6.5458582941091481e-01 4.1100172224293297e-01 -2.0705614206303918e-01  -7.0869235673970177e-01 2.2301684154580539e-01 -1.9875022046101093e-01  -6.6611278954459729e-01 1.6196591740983152e-01 -1.5047099098201208e-01  3.2484556663262820e-01 4.7069104117668853e-01 -1.6912355768243800e-01  2.6465726093392300e-01 4.6076822604354745e-01 -1.0262467242990161e-01  2.6891764695313997e-01 5.4638766484586965e-01 -2.2384972408852266e-01  3.8292572118604806e-01 4.5376772351246525e-01 -2.3653042173048103e-01  4.3978298460208021e-01 4.5655678921640319e-01 -3.1260783938650899e-01  -2.4117225912623044e-01 6.6015986896340639e-01 -3.6725343026296076e-01  -4.2670636357697755e-01 5.8117862766622153e-01 -3.5717698259268416e-01  1.1990716683857867e-01 6.4809992489850765e-01 -4.0243807066447906e-01  1.4899277498360569e-01 6.7185306912256404e-01 -3.7876007044208138e-01  -1.0041029467448839e-01 6.8588698914082979e-01 -3.7436787260610893e-01  -2.2121044397811618e-01 6.8771518395599385e-01 -3.3695844485688137e-01  -1.3780253199604897e-01 5.5309612596379598e-01 -1.1838748637610377e-01  -5.7618306038315038e-03 5.5555379476253519e-01 -1.1590350291046829e-01  -2.8859751540669715e-01 5.2198043525111892e-01 -1.2587550407699971e-01  -2.5348352164830235e-01 6.1802520777168835e-01 -1.8241163314560163e-01  -4.2167336275769107e-01 4.5795282851762908e-01 -1.3305230341723465e-01  6.4308855454965536e-02 6.1081621185617041e-01 -1.6962117794508361e-01  1.3956032649767730e-01 5.2398131671542236e-01 -1.1123928147238177e-01  -3.7600985660666575e-01 6.4206644752522968e-01 -2.3220542454969550e-01  -2.0058808663657959e-01 6.8147030689870236e-01 -2.3858856372444617e-01  -1.0893602503790704e-01 7.0126807310111083e-01 -2.8878511600698792e-01  -1.0525608904929245e-02 6.6831735106077983e-01 -2.3375353348316369e-01  1.4700465841213922e-01 6.2224915553899873e-01 -2.3702105602657991e-01  -5.3428755459923372e-01 5.5169063361836612e-01 -2.1808333760701976e-01  -4.8780498909562725e-01 6.0807348465474531e-01 -2.5445658834825746e-01  -5.5210808220086305e-01 4.5742304408657930e-01 -1.7525259420892905e-01  -5.3081084231387810e-01 3.4209880374740614e-01 -1.2613423730058515e-01  -6.2267748998156258e-01 4.9369455646469101e-01 -2.7353984521309110e-01  -4.7068433006205512e-01 6.1116331811943203e-01 -2.8353894639050992e-01  -2.0319307976800222e-01 6.9818691198889127e-01 -3.0982379998522253e-01  1.0210319383128311e-02 7.0018803049554135e-01 -3.2909771632479246e-01  -4.8800964534690527e-01 5.7976967484581654e-01 -3.1320078953391384e-01  -3.3661430248079977e-01 6.7037281473289545e-01 -3.0066514207318856e-01  -5.4615637145914708e-01 4.9686918874564767e-01 -3.4771758099079675e-01  -6.5871237452956577e-01 3.5519679089226580e-01 -3.5147769421930342e-01  2.2624515439633022e-01 6.5232270942017401e-01 -3.6447371129829498e-01  3.7252768026610839e-01 5.7027010501155562e-01 -3.7597323493339851e-01  2.2618316944231778e-01 6.1625974607485190e-01 -2.9937569656641366e-01  -7.1263071802162703e-01 3.3546275546712467e-01 -3.0171290348634777e-01  -5.9222205265419536e-01 2.1404036798625040e-01 -1.1850472390845421e-01  6.5298534480273229e-02 -4.2130610470886992e-01 -2.4068800785609443e-01  -2.7981187223706344e-01 3.1673699125375647e-02 -1.2794762575859125e-02  -2.9157513629617832e-01 -3.8927725649995909e-01 -4.1453029677303971e-01  -2.7360203513566078e-01 -7.3887081137203700e-02 -3.1806075418917834e-02  -1.0101743675604155e-01 -2.2448771111675234e-01 -5.6057550916926213e-02  -4.9698832844705437e-01 -2.0670307596575258e-01 -3.9920276627031520e-01  -5.6608843562627276e-01 4.6947836388588890e-02 -3.6859857670926927e-01  -2.0579705442094609e-01 2.9163166141040214e-01 -5.8614437695744918e-02  -4.8723959094809316e-01 -2.3872390675666955e-01 -3.3467324499876278e-01  -4.0772766276038830e-01 3.7893788705757481e-01 -2.9594839994631006e-01  -2.5089629351896364e-01 -4.2154135628266470e-01 -3.4692119519426745e-01  -3.5665932930270455e-01 -3.1702414877241430e-01 -2.2688110927771388e-01  -1.5942078693483627e-01 -4.0142493754361380e-01 -2.3321113014836120e-01  -2.4266701843551450e-01 -3.0883382006990689e-01 -1.5975467950587163e-01  -4.4793721041970469e-01 -4.9302850765159417e-02 -1.2349929477938222e-01  -4.4480751703199828e-01 1.2549240028836628e-01 -1.1178803834357624e-01  -6.1555063066425539e-02 -4.6169127687543177e-01 -3.4097317981726766e-01  -5.4879397085032222e-01 -5.7070941173212458e-03 -2.3187023121548736e-01  -5.3981051388635437e-01 1.7298542154835622e-01 -2.4422939610918912e-01  4.9545326149072672e-02 -3.3393204867327148e-01 -1.4973972005847599e-01  -3.5888694445902630e-01 2.6657236034099402e-01 -1.0358107224412499e-01  -2.1374948975460248e-01 -1.8443346661930488e-01 -6.2325622228806429e-02  -1.1220511309213724e-01 -4.2086449799510212e-01 -4.2272086985672747e-01  -2.5864863434364373e-02 -3.7566572905528850e-01 -1.8839173280364427e-01  -2.4764626035621959e-01 1.3660212685829587e-01 -1.2389684432842819e-02  -3.0051319604527066e-01 4.0461089727215233e-01 -1.8347096712286984e-01  8.2676409381907928e-02 -4.6358979787334986e-01 -3.2758696635133178e-01  2.2724523818091195e-02 -4.5636101051556843e-01 -4.5477775052912051e-01  -4.6762557367308788e-01 3.1507522381104847e-01 -3.5926394733036299e-01  -1.6472966027932887e-01 1.6664911612696670e-01 1.1242536155