<?xml version="1.0"?>
<VTKFile type="UnstructuredGrid"  version="0.1"  >
<UnstructuredGrid>
<Piece  NumberOfPoints="1268" NumberOfCells="4847">
<Points>
<DataArray  type="Float64"  NumberOfComponents="3"  format="ascii">1.994716987487452 0.01317707561264319 -1.202466945460223e-11  1.374072606111497 -0.08614134488653273 -5.388997575085332  -1.285941478930618 0.1916557790035214 -5.691288663606836  -1.59032616235459 -0.4515196446136259 1.626303258728257e-17  0.4950030257755884 2.521650519233041 -5.495391852657774  -0.4107718940653654 -2.429115409112172 -5.58531208084276  -0.9314707163843408 -3.006923447963563 4.87890977618477e-17  1.161824811771535 2.948440156756841 -3.391384395534658e-14  2.146749234505421 0.002696741478414759 -0.5615078450779066  2.330988047973839 -0.000873250973709995 -1.113141311680313  2.540713632977715 -0.1384292375506191 -1.637427654548237  2.645241452520652 -0.2872312815961211 -2.18637082393926  2.504842461151312 -0.2752146673621067 -2.746850782899552  2.287876352721185 -0.2088259978706829 -3.283011632728322  2.137771360922677 -0.2093380261300688 -3.844996501809416  1.970142554575494 -0.2193701374385486 -4.401638277082749  1.701580801829277 -0.1696632515169769 -4.915066532844666  1.398049690886424 0.4419377546899956 -5.387643705321969  1.183972204621215 0.9208338616597355 -5.413149504812257  0.7621482426349403 1.234356207118232 -5.461782499987256  0.2539805730796886 1.370727420898931 -5.519751404145364  -0.2689415860383004 1.319053689498898 -5.578906487138381  -0.7357170559581984 1.076180709179107 -5.631191713357971  -1.086003096318238 0.6812820615514149 -5.669884670156524  -1.65706961757681 -0.5275128747266272 -0.6240725009925172  -1.829082870387909 -0.8347372240299333 -1.153553189134448  -2.030635262011336 -1.097965926806997 -1.693320688638939  -2.148557703924963 -0.9683820133813712 -2.295450526931833  -2.119047321408695 -0.7521727279271558 -2.890676896601294  -1.972500555455803 -0.7106310836492745 -3.509380855831461  -1.885028119342598 -0.4902108162504233 -4.093718100793141  -1.832050776792238 -0.1313823297003599 -4.617858136599065  -1.636180550340053 0.1151199882480144 -5.165527944859976  -1.540434086810702 0.1014447694855235 -7.644826989049428e-17  -1.339902801239663 0.6191128040412099 2.218327606354497e-17  -0.9949589579071262 1.053322092476122 2.12059320661159e-17  -0.5243975458638882 1.346285776146202 7.754217898549941e-16  0.01399251627036286 1.481823287560149 3.252316763596149e-17  0.5696211504784076 1.47677978548424 -7.207855520904863e-17  1.105448032340458 1.331487337928338 1.951563910473908e-16  1.561367740818086 1.018090979386763 -2.179459114756194e-16  1.860006992193919 0.551530302300456 1.369433074745588e-16  -0.152869286718376 2.506583809965366 -5.568804938302105  -0.7781210310064858 2.335338381675429 -5.639249366957451  -1.340550096787874 2.011723800088065 -5.702178028336585  -1.803922993566052 1.555830170950866 -5.753534898075912  -2.144678763029901 1.000979069722826 -5.790734833138769  -2.346903237737564 0.3811866585909049 -5.812061421922149  -2.406990243842066 -0.2684488461825228 -5.817196438260218  -2.318433628103212 -0.9144163570965761 -5.805488779558074  -2.059391262210163 -1.511004864267824 -5.774580158166454  -1.615755841275718 -1.983465489741105 -5.72306417450185  -1.043145925381342 -2.287058241276404 -5.657361969815248  -0.6986882361605687 -2.420627649803484 -5.024556445072709  -0.8272574030199392 -2.685291244074475 -4.476216325063944  -0.8113210073272845 -3.118860027310894 -4.01596683617901  -0.7618552434953355 -3.481598098596065 -3.504026669625047  -0.7509882165597778 -3.609083979854663 -2.886473298216772  -0.7986167670519319 -3.732483084086931 -2.268445488219849  -0.8276969497603353 -3.810997815301134 -1.64593496945388  -0.7425506523451623 -3.557242155569485 -1.078322423839125  -0.7147449622328144 -3.21189056194362 -0.5511080601316157  -1.482234509376526 -2.778582553401298 -5.854479658363816e-16  -1.970737176894139 -2.437284655419533 2.764697292186607e-16  -2.362818572203899 -1.988727212877528 2.439101268600111e-16  -2.642390785384022 -1.462244173776716 5.051059276813266e-16  -2.812149102113852 -0.89052423419162 2.276851973687203e-16  -2.877946727920729 -0.2976446157883296 -1.219909928720168e-16  -2.842947107925845 0.2978601752284433 4.065446096494693e-17  -2.70313036896374 0.8776122116387211 -5.041496169361013e-16  -2.452324348076021 1.418519584933707 4.379274460317988e-16  -2.098265626135573 1.898294456130726 1.951060033519619e-16  -1.658391347368763 2.301023318502569 -1.789574489620802e-16  -1.154148079923361 2.619757341302747 -2.081203863085907e-15  -0.6042202207747882 2.851073703499478 -3.577841418755692e-16  -0.02416138323675775 2.990516581461941 4.065982498622179e-16  0.5710641261211448 3.028216945076794 -1.46882551317968e-16  0.6414151130412097 2.696325287154043 -4.983333021490838  0.771852374565919 2.778456367279237 -4.445188759107248  0.8805845204306011 2.73078881179073 -3.897720120696569  0.9481597620953167 2.69798349057175 -3.343104559074628  0.9815370707090804 2.778214865778854 -2.789250505759619  1.013475345489448 2.861817704396183 -2.235671116027784  1.055849759321274 2.898356228459238 -1.677594140621302  1.093646323460014 2.92793989028903 -1.118725590781912  1.124098871622056 2.957526991478201 -0.5594169689370629  0.2477015793419729 -2.415655802610486 -5.510682951113449  0.8844491790088972 -2.245867158009595 -5.438931443942415  1.464891069119211 -1.932330028996181 -5.373934600293736  1.955087092649627 -1.489613175355717 -5.319502697776375  2.318355026965356 -0.937054784961175 -5.279744576064058  2.524994411863564 -0.307899182343253 -5.257941630215678  2.574632820450045 0.3531084349228537 -5.254020561031156  2.465743861849647 1.006614152640354 -5.268052816559671  2.183897076015212 1.604484044160622 -5.301550147358176  1.722560240631265 2.07491696755195 -5.35506775502591  1.13806318635062 2.378906583716481 -5.422118662603529  1.742182153284979 2.73179858498085 5.854691697147836e-16  2.262480931380501 2.395264875892136 -2.601681534737615e-16  2.698000706832733 1.954727370266727 -3.903113804560263e-16  3.021530388777258 1.426473918441798 1.707421408502106e-16  3.223363606607101 0.8405687193648443 -2.844806418042028e-16  3.305434793487241 0.2261994274297442 -4.472186606099012e-16  3.269241566985055 -0.3926051469820059 3.171555149681837e-16  3.113478077610213 -0.9924495549400153 3.510830505762065e-16  2.840400132149515 -1.548806515270482 -1.707368614952523e-16  2.466120284856568 -2.042983582774378 9.732831365154574e-17  2.008125599488538 -2.460814027017948 -3.577575055983979e-16  1.482521285196868 -2.789563899556613 -4.886146623064541e-17  0.9057866143556688 -3.01678997208197 -2.439392613813594e-16  0.2964958724913082 -3.130681163554852 3.414395345104792e-16  -0.32338307292875 -3.126978161260848 2.926910878106614e-16  -1.29067345658392 -0.3506098753383553 -5.690421630247788  -1.068897680254163 -0.8451623229646739 -5.663999894259847  -0.6782440885714781 -1.219621806060448 -5.6187489875115  -0.168757542531344 -1.390394566692369 -5.560546895724229  0.3611301401510615 -1.294122251639114 -5.500717901478111  0.8191548613516448 -1.005201308695582 -5.449538098373106  1.16817203978903 -0.5892762115769014 -5.411042670828763  1.960898302630318 -0.551652302616722 -8.131516293641286e-17  1.751009740180289 -1.077278642631261 7.445724005953314e-16  1.394016468000002 -1.516729095803803 1.136104663605282e-15  0.9227767039454898 -1.830301465573364 3.434443593283319e-16  0.3780412068884804 -1.984007749105097 8.617772484356591e-16  -0.1885780664025548 -1.977994130030172 2.357202029695971e-16  -0.7327557451871473 -1.821291124380143 1.942410916395698e-17  -1.191068596016128 -1.491774666596192 2.975009434367945e-16  -1.480405544894888 -1.006855825633415 6.954512630084263e-16  -1.812414118534285 0.2561131097252937 -2.664867827914479  2.421751940242729 0.6298287624476981 -1.933377861698098  0.7556418177061754 1.42269463362527 -4.617654324361507  0.003134751711410342 1.574821943356493 -0.9318675177876981  1.015098001669947 1.51699057942374 -0.9441494884276413  0.6193243625380082 1.764115149411371 -1.862230514405671  -0.4757031201037318 1.549728101933577 -1.958273018773558  0.1126459993007786 1.698838152590054 -2.957602797129454  -0.3405660022430232 1.569615851499001 -4.678135257405353  1.818199099779932 0.7365610114574719 -3.763003518505052  -0.9541815370276669 1.23451227632913 -2.875526912859068  -1.269464226480212 1.016489154450913 -4.672047638709048  1.301562892980348 1.557566760682666 -2.802482532053872  -0.7813756340336595 1.414221906310649 -3.725761628685261  -1.58370798409762 0.5643609111372817 -3.581008460136619  -0.988817348255397 1.158392548936659 -1.014254585170146  -1.607700527190565 0.2800106654898483 -1.030081240453645  -1.388203055800784 0.7951310659851955 -1.943712885648593  0.8261955720421881 1.570157055202129 -3.620947225245673  1.681455131778566 1.410849015379531 -1.876189895849114  1.878739160554727 0.943024132521903 -0.9866418074548234  2.103426639579445 1.000735947836943 -2.593434794762663  1.62623803052506 0.6468498306152269 -4.727220189271843  -1.882943490361709 -0.1546739965127431 -1.761716647663214  0.05868355051519467 1.656538949473053 -3.863342338366238  2.465845305360337 0.2632819454094029 -2.663569745038379  1.994842599423799 0.5019775153043848 -0.4779055074204815  2.1671824130763 0.4980244878585698 -1.027636182799239  1.710213566460811 0.9718796190568162 -0.4957578884333736  1.845584590132108 0.2253887364997403 -4.583879812097906  1.579035044615276 0.2924902970866011 -5.101748935835201  1.409777182251665 0.7868327264427526 -5.07202467441607  -1.039178737375989 1.089168173550246 -5.170746090958521  -1.377687418630729 0.6683636420802941 -5.233117919580046  -1.641402128985454 0.4875654733502939 -4.648722230221863  -1.765467255797776 -0.2695484060062747 -1.079683539430899  -1.617858736076732 -0.08318463488274264 -0.5123563299218489  -1.474019211051276 0.4496529111656123 -0.5150171376928306  2.417677350191343 0.3274903893149403 -1.506992657970159 
[...]
<PointData  Vectors="displacement"> 
<DataArray  type="Float64"  Name="displacement"  NumberOfComponents="3" format="ascii">0.0000000000000000e+00 0.0000000000000000e+00 0.0000000000000000e+00  3.3632345308781164e-01 2.8806290816853625e-01 -4.5626349895063478e-01  -4.2958306958291348e-01 -1.3095878071118383e-01 -4.5634150627944003e-01  0.0000000000000000e+00 0.0000000000000000e+00 0.0000000000000000e+00  -4.2137181578306215e-01 3.0587726992755926e-01 -3.2381773982550821e-01  2.9780346027440086e-01 -2.4008130271031466e-01 -4.9260420999764826e-01  0.0000000000000000e+00 0.0000000000000000e+00 0.0000000000000000e+00  0.0000000000000000e+00 0.0000000000000000e+00 0.0000000000000000e+00  2.5209600140188543e-01 5.2140448957832389e-02 -2.9048684240189679e-02  3.9097085236600498e-01 1.1419358334323843e-01 -5.8088096804656861e-02  4.5722687889915697e-01 1.3540505663704319e-01 -1.1420976478607214e-01  4.9674581075601715e-01 1.5355106876930077e-01 -1.9954760223234899e-01  5.4682266149650405e-01 2.0067559552103970e-01 -2.9880159178249588e-01  5.6331525712237007e-01 2.5249923234435656e-01 -3.5875303018810478e-01  5.2916080225902418e-01 2.7444289727539978e-01 -3.8391147270827120e-01  4.6599356776924455e-01 2.8179399086589185e-01 -4.0721793371054715e-01  4.0241068250793788e-01 2.9113305711989151e-01 -4.3600764289223554e-01  1.6952437827904004e-01 4.1744133942775441e-01 -4.2176138194958007e-01  -5.2358303255197183e-03 4.7807248771664596e-01 -4.0415612450992561e-01  -1.6812222622364892e-01 4.8681487844238669e-01 -3.8749579018652058e-01  -3.1046942065262573e-01 4.2958659004399335e-01 -4.0034710334389917e-01  -4.2181696203995667e-01 3.2726432612666168e-01 -4.1184536363216295e-01  -4.8226388287887173e-01 1.8897000401278630e-01 -4.3034140638216384e-01  -4.9181495223350385e-01 3.0950843121718700e-02 -4.4513112069324878e-01  -2.9418601165377883e-01 -2.5558368277423089e-02 -3.7247939402050692e-02  -4.1261642714055075e-01 -1.1113405218357765e-01 -4.7718439190013159e-02  -4.2984758872062823e-01 -2.0175714774157857e-01 -9.9291326971428173e-02  -4.7351221769057028e-01 -2.1871159709818355e-01 -1.8503731908916315e-01  -5.1520709300578260e-01 -2.2203628222370583e-01 -2.6395332285891887e-01  -5.1372627978306795e-01 -2.6153163901190268e-01 -3.2413962927191908e-01  -5.0536704081311634e-01 -2.5677566631549603e-01 -3.4893884818452958e-01  -4.9628268741826925e-01 -2.0720141612014817e-01 -3.6920636040131499e-01  -4.6982337087430986e-01 -1.6921195284578036e-01 -4.1417901635318055e-01  0.0000000000000000e+00 0.0000000000000000e+00 0.0000000000000000e+00  0.0000000000000000e+00 0.0000000000000000e+00 0.0000000000000000e+00  0.0000000000000000e+00 0.0000000000000000e+00 0.0000000000000000e+00  0.0000000000000000e+00 0.0000000000000000e+00 0.0000000000000000e+00  0.0000000000000000e+00 0.0000000000000000e+00 0.0000000000000000e+00  0.0000000000000000e+00 0.0000000000000000e+00 0.0000000000000000e+00  0.0000000000000000e+00 0.0000000000000000e+00 0.0000000000000000e+00  0.0000000000000000e+00 0.0000000000000000e+00 0.0000000000000000e+00  0.0000000000000000e+00 0.0000000000000000e+00 0.0000000000000000e+00  -4.6913707241701069e-01 2.1682273983339137e-01 -3.2976304813587892e-01  -4.9560338320693276e-01 1.1394869094255665e-01 -3.3596071032147506e-01  -4.9487084644258028e-01 1.1137847390414181e-02 -3.4759576869799613e-01  -4.5904889399379362e-01 -9.2167792107994820e-02 -3.5206612344949956e-01  -4.0139239892709788e-01 -1.9643474118897508e-01 -3.6058141259001225e-01  -3.1167807344518317e-01 -2.8535012827381512e-01 -3.7072153582454492e-01  -2.0143011301847177e-01 -3.4540200189140596e-01 -3.7673005540801341e-01  -7.8725531058017481e-02 -3.7458799902729173e-01 -3.8175967697010427e-01  4.8580282295576968e-02 -3.7403956119724235e-01 -4.0277955994291836e-01  1.2482216263335685e-01 -3.4357196085540093e-01 -4.2375890080873352e-01  2.0737780246576495e-01 -2.9422902152900782e-01 -4.5061026988539388e-01  2.2990504812100612e-01 -3.8298732194653723e-01 -4.5896231623307027e-01  2.0302973127260412e-01 -4.4370260766334985e-01 -3.9962758841798146e-01  2.0974929120167282e-01 -4.3059478417923436e-01 -3.1900312333814757e-01  2.0676447374669304e-01 -3.9939656899726755e-01 -2.5911643333174000e-01  1.9129164774355006e-01 -3.8026177850608900e-01 -2.1685437245445863e-01  1.5505338063281671e-01 -3.3500600223582161e-01 -1.5367527452125021e-01  1.3836975440733482e-01 -2.7835100708256377e-01 -1.1311330366706079e-01  1.0394046153994817e-01 -2.4102344221501343e-01 -7.5871056204410522e-02  5.1588268102642131e-02 -1.5312071167001437e-01 -1.7560147711112570e-02  0.0000000000000000e+00 0.0000000000000000e+00 0.0000000000000000e+00  0.0000000000000000e+00 0.0000000000000000e+00 0.0000000000000000e+00  0.0000000000000000e+00 0.0000000000000000e+00 0.0000000000000000e+00  0.0000000000000000e+00 0.0000000000000000e+00 0.0000000000000000e+00  0.0000000000000000e+00 0.0000000000000000e+00 0.0000000000000000e+00  0.0000000000000000e+00 0.0000000000000000e+00 0.0000000000000000e+00  0.0000000000000000e+00 0.0000000000000000e+00 0.0000000000000000e+00  0.0000000000000000e+00 0.0000000000000000e+00 0.0000000000000000e+00  0.0000000000000000e+00 0.0000000000000000e+00 0.0000000000000000e+00  0.0000000000000000e+00 0.0000000000000000e+00 0.0000000000000000e+00  0.0000000000000000e+00 0.0000000000000000e+00 0.0000000000000000e+00  0.0000000000000000e+00 0.0000000000000000e+00 0.0000000000000000e+00  0.0000000000000000e+00 0.0000000000000000e+00 0.0000000000000000e+00  0.0000000000000000e+00 0.0000000000000000e+00 0.0000000000000000e+00  0.0000000000000000e+00 0.0000000000000000e+00 0.0000000000000000e+00  -3.9582889977124713e-01 3.4207129053044644e-01 -3.0834823166608172e-01  -3.5107361921349423e-01 3.7771137502361335e-01 -2.8989575824948760e-01  -2.8366509068766715e-01 4.1005526954814570e-01 -2.6413196254427035e-01  -2.1224779833057711e-01 4.2520259314495501e-01 -2.1745437414903063e-01  -1.6943091082460393e-01 4.0598538009698437e-01 -1.6362757426756927e-01  -1.3151334847419580e-01 3.5994601459308345e-01 -1.0593733573154296e-01  -1.0008798533791335e-01 2.9393944362378455e-01 -5.1925372026615971e-02  -7.4909445705895278e-02 1.9989989423421434e-01 -1.2831975315393343e-03  -3.8943032598142337e-02 9.8147279093958276e-02 2.8917884033912343e-02  3.7974102544746524e-01 -1.6180268563148392e-01 -5.1784040543845100e-01  4.4337880419279307e-01 -5.6010269218870722e-02 -5.1861599875359676e-01  4.6181252251827515e-01 7.8630047066658076e-02 -5.0476229067286227e-01  4.3576945598743849e-01 2.1981284941515850e-01 -4.6934395186760131e-01  3.5044719324808954e-01 3.4517103383885689e-01 -4.3189846788429764e-01  2.3316163943625626e-01 4.3681404642735588e-01 -3.9535636578912076e-01  9.7367984850641506e-02 4.9242358456099383e-01 -3.6521156639785690e-01  -4.5845656739841367e-02 5.1658106909133439e-01 -3.5127885740918569e-01  -1.7119209626240939e-01 4.8973092689612846e-01 -3.3333121764398538e-01  -2.7226288121509590e-01 4.4985515828308553e-01 -3.2499758228853720e-01  -3.4763590900886626e-01 3.8585353224264718e-01 -3.1780067841364851e-01  0.0000000000000000e+00 0.0000000000000000e+00 0.0000000000000000e+00  0.0000000000000000e+00 0.0000000000000000e+00 0.0000000000000000e+00  0.0000000000000000e+00 0.0000000000000000e+00 0.0000000000000000e+00  0.0000000000000000e+00 0.0000000000000000e+00 0.0000000000000000e+00  0.0000000000000000e+00 0.0000000000000000e+00 0.0000000000000000e+00  0.0000000000000000e+00 0.0000000000000000e+00 0.0000000000000000e+00  0.0000000000000000e+00 0.0000000000000000e+00 0.0000000000000000e+00  0.0000000000000000e+00 0.0000000000000000e+00 0.0000000000000000e+00  0.0000000000000000e+00 0.0000000000000000e+00 0.0000000000000000e+00  0.0000000000000000e+00 0.0000000000000000e+00 0.0000000000000000e+00  0.0000000000000000e+00 0.0000000000000000e+00 0.0000000000000000e+00  0.0000000000000000e+00 0.0000000000000000e+00 0.0000000000000000e+00  0.0000000000000000e+00 0.0000000000000000e+00 0.0000000000000000e+00  0.0000000000000000e+00 0.0000000000000000e+00 0.0000000000000000e+00  0.0000000000000000e+00 0.0000000000000000e+00 0.0000000000000000e+00  -3.1107940678651735e-01 -2.7650834554422965e-01 -4.6083120930495175e-01  -1.4455983289590027e-01 -3.7630647887950086e-01 -4.6776906333378121e-01  5.4002443623140384e-02 -4.0897273145093799e-01 -4.7039437975132331e-01  2.4505182971905443e-01 -3.5800827943010233e-01 -4.8769772418877094e-01  3.9558011048934272e-01 -2.5657691201489180e-01 -4.9653480739851819e-01  4.6711212918387868e-01 -8.7646828159096926e-02 -4.9798640619733620e-01  4.4362696925615275e-01 1.1291070967363061e-01 -4.8379055811386151e-01  0.0000000000000000e+00 0.0000000000000000e+00 0.0000000000000000e+00  0.0000000000000000e+00 0.0000000000000000e+00 0.0000000000000000e+00  0.0000000000000000e+00 0.0000000000000000e+00 0.0000000000000000e+00  0.0000000000000000e+00 0.0000000000000000e+00 0.0000000000000000e+00  0.0000000000000000e+00 0.0000000000000000e+00 0.0000000000000000e+00  0.0000000000000000e+00 0.0000000000000000e+00 0.0000000000000000e+00  0.0000000000000000e+00 0.0000000000000000e+00 0.0000000000000000e+00  0.0000000000000000e+00 0.0000000000000000e+00 0.0000000000000000e+00  0.0000000000000000e+00 0.0000000000000000e+00 0.0000000000000000e+00  -6.4616080684843047e-01 8.6357030208254845e-02 -2.0773057873219558e-01  3.6993869760546821e-01 3.2868505930638126e-01 -1.5187088374854588e-01  -1.2630895805131562e-01 5.8110833085122893e-01 -3.3026590331780781e-01  -1.3269694288244072e-01 3.8236817298975351e-01 -7.5154433765588058e-02  5.4547963199590911e-02 3.8316696663223043e-01 -6.5938483766172160e-02  -8.2982624274771308e-02 5.5733287667762355e-01 -1.5645753026359169e-01  -3.6843891233674558e-01 4.9844178511657589e-01 -1.5985788721588273e-01  -2.8298523734103032e-01 6.0573858553515236e-01 -2.2619537454171429e-01  -4.4171722407992042e-01 4.3350555807175262e-01 -3.2320895143114364e-01  3.1562646863625665e-01 5.1415230608427664e-01 -3.3805682407422533e-01  -5.6544699143342014e-01 4.3049966706998177e-01 -2.0441665269596818e-01  -6.0053473513761002e-01 1.6711463536272600e-01 -3.3709963900144274e-01  6.8663645357410680e-02 6.0088247537744832e-01 -2.5383507948193512e-01  -5.4410463713574075e-01 4.2937399444286473e-01 -2.5302794664818107e-01  -6.7698128476210606e-01 1.3252118486718076e-01 -2.6418907783592238e-01  -3.3318630575950958e-01 2.9108666196291388e-01 -8.3258624827243694e-02  -4.2675286582438177e-01 1.0473680870309826e-01 -6.9803292909454404e-02  -5.7021684527168170e-01 2.7393214637110619e-01 -1.4490552827015221e-01  -8.1160271438637674e-02 6.2805864199832828e-01 -2.8621285134224678e-01  1.7905439475846055e-01 4.8979636288870743e-01 -1.4410473687611250e-01  2.4941698755006539e-01 2.8686695989172539e-01 -5.8500081106454591e-02  3.0514096311224675e-01 4.7589146539997246e-01 -2.5121669401676733e-01  2.0981761415721292e-01 4.7686814778982339e-01 -3.7618062531854723e-01  -5.6225164305067077e-01 9.8484419895521810e-03 -1.1843961068652638e-01  -3.2547920722433116e-01 5.7339708344420348e-01 -2.7008845615880483e-01  4.6285626018495946e-01 3.2737877123189524e-01 -2.7635590482782108e-01  2.0310298933434284e-01 1.0581607713597344e-01 -3.3705913506274728e-02  3.2738907035842157e-01 2.0536039841669212e-01 -5.5035465097034220e-02  1.5606213557217030e-01 1.7288151065769636e-01 -3.7052512847339653e-02  3.4948603028359854e-01 3.9499974685419625e-01 -3.9250008802258513e-01  2.6095657918458076e-01 3.9896502677619788e-01 -4.1760625828978354e-01  1.1016655114693098e-01 4.8437777662406650e-01 -3.8842187972841280e-01  -5.4883014573653466e-01 1.7410733437362516e-01 -3.8658533332976969e-01  -5.3787893911547557e-01 8.1936337016686265e-03 -4.0519597330045054e-01  -5.8637430778612865e-01 -2.2144947142103702e-02 -3.5138307731549517e-01  -4.3977101748830044e-01 2.7139404163191317e-03 -6.4805655083795183e-02  -2.5393603295122030e-01 3.0158277388757183e-02 -4.0473486730931867e-02  -2.3892238918940223e-01 8.8334279398787574e-02 -4.2285582924324189e-02  3.9751479270829398e-01 2.2682869726376170e-01 -9.5540157955509117e-02  4.3399955263231721e-01 2.4329731408680397e-01 -1.7145255140397564e-01  3.2353601405068150e-01 3.2184534074674576e-01 -9.2073552042420875e-02  4.8464171086955532e-01 2.3960270677837692e-01 -2.4238534480512458e-01  5.2135601844115331e-01 2.9931260466742254e-01 -3.2370325909736769e-01  4.0519117608236033e-01 3.3194805569721914e-01 -2.1244690658628135e-01  4.6375641205711382e-01 3.9741788426381186e-01 -3.5253836124855309e-01  4.0080934654401290e-01 4.0910727043423428e-01 -3.6819852841018130e-01  4.2726700664620498e-01 4.3420533840474457e-01 -3.3309892026194815e-01  2.6290796110347875e-01 5.0109359193514580e-01 -3.5102577229388354e-01  -6.1904486028059626e-02 5.4065766815187333e-01 -3.6322559898928658e-01  -2.2194123537261001e-01 5.2457215679086744e-01 -3.5959269166663499e-01  4.3403055649061148e-02 5.5246119345580302e-01 -3.5558902853483559e-01  -3.7706027725459879e-01 4.4232547251266424e-01 -3.6187711096023911e-01  -4.8697151077507961e-01 3.1858419232002405e-01 -3.7120139393524282e-01  -2.9596540958674417e-01 5.3175658216750044e-01 -3.2732180349490769e-01  -5.4706912242119532e-01 3.1066434548303234e-01 -3.2830736242093472e-01  -5.4053171503905650e-01 -1.0486488121918776e-01 -1.4082230058932615e-01  -4.9361473894861563e-01 -5.7206610731303509e-02 -8.2268669744164219e-02  -5.1523117076864822e-01 6.8452682584637783e-02 -9.1498699827266064e-02  -6.1421290786035998e-01 -8.6881073916144899e-02 -2.6939346978157480e-01  -5.8237481308258154e-01 -7.8023854534768206e-02 -1.9889425684595552e-01  -6.1534639712141692e-01 5.2530450700326019e-02 -1.6347217337498707e-01  -6.3053798621213719e-01 -3.8600142743900633e-02 -3.1017131119727614e-01  -6.3522918402475959e-01 -7.0588666827163263e-02 -2.9489120103846572e-01  -6.6903835755348795e-01 1.1308278997671098e-01 -2.4215855281410700e-01  -6.4996735788744653e-01 1.5416271989557023e-01 -2.8995589225077756e-01  -2.0468206200801692e-01 1.4608812105703270e-01 -4.8343702262614772e-02  -1.5897117909253536e-01 1.9766660617237530e-01 -5.3416455950880980e-02  -3.9233448781206975e-01 2.0122051748735945e-01 -8.0009997348636827e-02  -9.6028396687125497e-02 2.2364974516176467e-01 -5.1291497859326567e-02  -3.8627804886135618e-02 2.3560108157486631e-01 -4.8391167885045980e-02  -2.3537141258870228e-01 3.5068811153991725e-01 -8.2759856179305077e-02  2.3698249877754894e-02 2.3622153914210789e-01 -4.5236853293120084e-02  8.8627487367606519e-02 2.0673999557694400e-01 -3.7209097987778536e-02  -4.1624334057153496e-02 3.8933654395277412e-01 -6.7244635715526593e-02  1.5269413588734607e-01 3.4493590211222125e-01 -6.0385963452576567e-02  -6.4149991212367374e-01 2.6905690877994215e-01 -2.0208761611299861e-01  -6.4628837056078325e-01 2.9668051307385557e-01 -2.2643596671780283e-01  -5.8251266782476929e-01 3.6180206602275700e-01 -1.7636250711525919e-01  -6.2758427607829392e-01 1.9592482622825050e-01 -1.7056716053413987e-01  -5.8685113856052151e-01 1.4233907644604493e-01 -1.3191081600956589e-01  2.8442933147071936e-01 4.1622363625687669e-01 -1.4587369125267424e-01  2.3094457042184255e-01 4.0222076077469959e-01 -9.1331524654446564e-02  2.3420159669492052e-01 4.8569507159619391e-01 -1.9207505128509719e-01  3.3719877697162737e-01 4.0505060575505009e-01 -2.0297279787526376e-01  3.8922229816530707e-01 4.1044619137316424e-01 -2.6899755067170938e-01  -2.2579138863528839e-01 5.8655734024034123e-01 -2.9953662237460249e-01  -3.9046067729150441e-01 5.1495858039459197e-01 -2.9144637225917308e-01  9.7995656926828462e-02 5.8232655210539364e-01 -3.3048973109982382e-01  1.2534044445912332e-01 6.0227473441119206e-01 -3.1463955062331361e-01  -1.0005652839256549e-01 6.1168101167705857e-01 -3.0665503377064307e-01  -2.0691657628731402e-01 6.1174575439329382e-01 -2.7741868585145008e-01  -1.2241080049895305e-01 4.8409084656211848e-01 -1.0621522955668840e-01  -6.1843901130589603e-03 4.8613729255497867e-01 -1.0478188436411334e-01  -2.5495481197227504e-01 4.5679573071545604e-01 -1.1283941043771510e-01  -2.2722312548247647e-01 5.4488569127098740e-01 -1.5856403904924712e-01  -3.7166350342779192e-01 4.0070502537331770e-01 -1.1940974246154203e-01  5.3681873440387579e-02 5.3882103735975029e-01 -1.4739114399243447e-01  1.2122162425228276e-01 4.5756467281582014e-01 -1.0006114173928010e-01  -3.3875420277155222e-01 5.6782283175715986e-01 -1.9753677931192026e-01  -1.8310532588456743e-01 6.0420070699421435e-01 -2.0409045611569068e-01  -1.0411820016952920e-01 6.2383213068832866e-01 -2.4331081581918856e-01  -1.4284628188211700e-02 5.9285905614591106e-01 -2.0022405168796378e-01  1.2573209208742231e-01 5.5298352221233382e-01 -2.0297581498818124e-01  -4.7779777891149600e-01 4.8729270864227231e-01 -1.8618588624236074e-01  -4.4019149451139944e-01 5.3822673701364232e-01 -2.1313337710010308e-01  -4.8986557983692641e-01 4.0192898263805232e-01 -1.5256954474543202e-01  -4.6687545963814342e-01 2.9922114804353456e-01 -1.1395376973215869e-01  -5.6035297109047988e-01 4.3576110259284023e-01 -2.2684419377498813e-01  -4.2701437741044951e-01 5.4181188637311417e-01 -2.3429255556795531e-01  -1.8956944479115892e-01 6.2127430827056185e-01 -2.5783603426352142e-01  1.7408745699395744e-03 6.2502092372309570e-01 -2.7616848464255350e-01  -4.4350858714374441e-01 5.1356678936062294e-01 -2.5633392839334729e-01  -3.0857030585286876e-01 5.9559948713841626e-01 -2.4832780342748689e-01  -4.9594061610924972e-01 4.3842408524859527e-01 -2.8403033411946105e-01  -5.9428850078191831e-01 3.1041645647543320e-01 -2.8878121582571947e-01  1.9568274567881977e-01 5.8451359387239665e-01 -3.0689960727517873e-01  3.2857677200963487e-01 5.1282720882949351e-01 -3.1970462607637523e-01  1.9622018680170961e-01 5.5043919216899972e-01 -2.5553001606544112e-01  -6.3996855820630805e-01 2.9343145178973146e-01 -2.4844077135464243e-01  -5.1999913514994667e-01 1.8757633460372025e-01 -1.0730857950323254e-01  7.7450849162854551e-02 -3.7661095345497525e-01 -2.0001542189368968e-01  -2.4492762646402330e-01 2.2165494767329763e-02 -4.8258555307077611e-03  -2.5190254926580158e-01 -3.7290888015604007e-01 -3.5129033821381439e-01  -2.3760963537516541e-01 -7.0466623716757951e-02 -2.2519461361277977e-02  -7.9758414480163339e-02 -1.9899048276851297e-01 -4.7276113267314186e-02  -4.4753266430914990e-01 -2.0740823086691243e-01 -3.3695815141966295e-01  -5.1830561818316245e-01 2.7796018169355736e-02 -3.0836819175481323e-01  -1.8754743633034526e-01 2.5413811983733575e-01 -4.1996942797610522e-02  -4.3194308287782307e-01 -2.3242359299682033e-01 -2.8263914163755355e-01  -3.7764819842272973e-01 3.3616106744275570e-01 -2.4485143019490951e-01  -2.0927045187522095e-01 -3.9617842160452393e-01 -2.9339544775401138e-01  -3.1088025602808478e-01 -2.9848998883523425e-01 -1.8975828666411818e-01  -1.2651538686138336e-01 -3.6904488192261192e-01 -1.9451197409511023e-01  -2.0523240783956079e-01 -2.8479644981497887e-01 -1.3341199172222035e-01  -3.9791348676992594e-01 -5.4166851544186156e-02 -9.9947130884257815e-02  -3.9810534782969520e-01 1.0403989923729351e-01 -8.7217928579283580e-02  -3.4783744808968960e-02 -4.2527789605771460e-01 -2.8545218108238374e-01  -4.9341681247582919e-01 -1.7440921743322155e-02 -1.9193467107350065e-01  -4.8932414301761568e-01 1.4588838170423241e-01 -2.0176230552237512e-01  5.9240646667205257e-02 -2.9721567243123476e-01 -1.2599073996468288e-01  -3.2310970248095994e-01 2.3206144241781165e-01 -7.9073096857904188e-02  -1.8108918688063289e-01 -1.6751849000781124e-01 -5.1582592979252398e-02  -8.3891198711221804e-02 -3.9128441753687793e-01 -3.5407415423679184e-01  -7.2535121178505029e-03 -3.3835880597733797e-01 -1.5623013251298654e-01  -2.1806727301718820e-01 1.1581319580680448e-01 -3.7799151792548896e-03  -2.7626816724294928e-01 3.5787955169674895e-01 -1.4855591562198453e-01  9.5389168944514949e-02 -4.2025236894791007e-01 -2.7381829398915136e-01  4.1134501152276612e-02 -4.1700315017262157e-01 -3.8267302702980799e-01  -4.3592667816145664e-01 2.7807989527305549e-01 -2.9724101076478032e-01  -1.4647689060349592e-01 1.4251291867963861e-01 7.672355565