<?xml version="1.0"?>
<VTKFile type="UnstructuredGrid"  version="0.1"  >
<UnstructuredGrid>
<Piece  NumberOfPoints="1268" NumberOfCells="4847">
<Points>
<DataArray  type="Float64"  NumberOfComponents="3"  format="ascii">1.994716987487452 0.01317707561264319 -1.202466945460223e-11  1.374072606111497 -0.08614134488653273 -5.388997575085332  -1.285941478930618 0.1916557790035214 -5.691288663606836  -1.59032616235459 -0.4515196446136259 1.626303258728257e-17  0.4950030257755884 2.521650519233041 -5.495391852657774  -0.4107718940653654 -2.429115409112172 -5.58531208084276  -0.9314707163843408 -3.006923447963563 4.87890977618477e-17  1.161824811771535 2.948440156756841 -3.391384395534658e-14  2.146749234505421 0.002696741478414759 -0.5615078450779066  2.330988047973839 -0.000873250973709995 -1.113141311680313  2.540713632977715 -0.1384292375506191 -1.637427654548237  2.645241452520652 -0.2872312815961211 -2.18637082393926  2.504842461151312 -0.2752146673621067 -2.746850782899552  2.287876352721185 -0.2088259978706829 -3.283011632728322  2.137771360922677 -0.2093380261300688 -3.844996501809416  1.970142554575494 -0.2193701374385486 -4.401638277082749  1.701580801829277 -0.1696632515169769 -4.915066532844666  1.398049690886424 0.4419377546899956 -5.387643705321969  1.183972204621215 0.9208338616597355 -5.413149504812257  0.7621482426349403 1.234356207118232 -5.461782499987256  0.2539805730796886 1.370727420898931 -5.519751404145364  -0.2689415860383004 1.319053689498898 -5.578906487138381  -0.7357170559581984 1.076180709179107 -5.631191713357971  -1.086003096318238 0.6812820615514149 -5.669884670156524  -1.65706961757681 -0.5275128747266272 -0.6240725009925172  -1.829082870387909 -0.8347372240299333 -1.153553189134448  -2.030635262011336 -1.097965926806997 -1.693320688638939  -2.148557703924963 -0.9683820133813712 -2.295450526931833  -2.119047321408695 -0.7521727279271558 -2.890676896601294  -1.972500555455803 -0.7106310836492745 -3.509380855831461  -1.885028119342598 -0.4902108162504233 -4.093718100793141  -1.832050776792238 -0.1313823297003599 -4.617858136599065  -1.636180550340053 0.1151199882480144 -5.165527944859976  -1.540434086810702 0.1014447694855235 -7.644826989049428e-17  -1.339902801239663 0.6191128040412099 2.218327606354497e-17  -0.9949589579071262 1.053322092476122 2.12059320661159e-17  -0.5243975458638882 1.346285776146202 7.754217898549941e-16  0.01399251627036286 1.481823287560149 3.252316763596149e-17  0.5696211504784076 1.47677978548424 -7.207855520904863e-17  1.105448032340458 1.331487337928338 1.951563910473908e-16  1.561367740818086 1.018090979386763 -2.179459114756194e-16  1.860006992193919 0.551530302300456 1.369433074745588e-16  -0.152869286718376 2.506583809965366 -5.568804938302105  -0.7781210310064858 2.335338381675429 -5.639249366957451  -1.340550096787874 2.011723800088065 -5.702178028336585  -1.803922993566052 1.555830170950866 -5.753534898075912  -2.144678763029901 1.000979069722826 -5.790734833138769  -2.346903237737564 0.3811866585909049 -5.812061421922149  -2.406990243842066 -0.2684488461825228 -5.817196438260218  -2.318433628103212 -0.9144163570965761 -5.805488779558074  -2.059391262210163 -1.511004864267824 -5.774580158166454  -1.615755841275718 -1.983465489741105 -5.72306417450185  -1.043145925381342 -2.287058241276404 -5.657361969815248  -0.6986882361605687 -2.420627649803484 -5.024556445072709  -0.8272574030199392 -2.685291244074475 -4.476216325063944  -0.8113210073272845 -3.118860027310894 -4.01596683617901  -0.7618552434953355 -3.481598098596065 -3.504026669625047  -0.7509882165597778 -3.609083979854663 -2.886473298216772  -0.7986167670519319 -3.732483084086931 -2.268445488219849  -0.8276969497603353 -3.810997815301134 -1.64593496945388  -0.7425506523451623 -3.557242155569485 -1.078322423839125  -0.7147449622328144 -3.21189056194362 -0.5511080601316157  -1.482234509376526 -2.778582553401298 -5.854479658363816e-16  -1.970737176894139 -2.437284655419533 2.764697292186607e-16  -2.362818572203899 -1.988727212877528 2.439101268600111e-16  -2.642390785384022 -1.462244173776716 5.051059276813266e-16  -2.812149102113852 -0.89052423419162 2.276851973687203e-16  -2.877946727920729 -0.2976446157883296 -1.219909928720168e-16  -2.842947107925845 0.2978601752284433 4.065446096494693e-17  -2.70313036896374 0.8776122116387211 -5.041496169361013e-16  -2.452324348076021 1.418519584933707 4.379274460317988e-16  -2.098265626135573 1.898294456130726 1.951060033519619e-16  -1.658391347368763 2.301023318502569 -1.789574489620802e-16  -1.154148079923361 2.619757341302747 -2.081203863085907e-15  -0.6042202207747882 2.851073703499478 -3.577841418755692e-16  -0.02416138323675775 2.990516581461941 4.065982498622179e-16  0.5710641261211448 3.028216945076794 -1.46882551317968e-16  0.6414151130412097 2.696325287154043 -4.983333021490838  0.771852374565919 2.778456367279237 -4.445188759107248  0.8805845204306011 2.73078881179073 -3.897720120696569  0.9481597620953167 2.69798349057175 -3.343104559074628  0.9815370707090804 2.778214865778854 -2.789250505759619  1.013475345489448 2.861817704396183 -2.235671116027784  1.055849759321274 2.898356228459238 -1.677594140621302  1.093646323460014 2.92793989028903 -1.118725590781912  1.124098871622056 2.957526991478201 -0.5594169689370629  0.2477015793419729 -2.415655802610486 -5.510682951113449  0.8844491790088972 -2.245867158009595 -5.438931443942415  1.464891069119211 -1.932330028996181 -5.373934600293736  1.955087092649627 -1.489613175355717 -5.319502697776375  2.318355026965356 -0.937054784961175 -5.279744576064058  2.524994411863564 -0.307899182343253 -5.257941630215678  2.574632820450045 0.3531084349228537 -5.254020561031156  2.465743861849647 1.006614152640354 -5.268052816559671  2.183897076015212 1.604484044160622 -5.301550147358176  1.722560240631265 2.07491696755195 -5.35506775502591  1.13806318635062 2.378906583716481 -5.422118662603529  1.742182153284979 2.73179858498085 5.854691697147836e-16  2.262480931380501 2.395264875892136 -2.601681534737615e-16  2.698000706832733 1.954727370266727 -3.903113804560263e-16  3.021530388777258 1.426473918441798 1.707421408502106e-16  3.223363606607101 0.8405687193648443 -2.844806418042028e-16  3.305434793487241 0.2261994274297442 -4.472186606099012e-16  3.269241566985055 -0.3926051469820059 3.171555149681837e-16  3.113478077610213 -0.9924495549400153 3.510830505762065e-16  2.840400132149515 -1.548806515270482 -1.707368614952523e-16  2.466120284856568 -2.042983582774378 9.732831365154574e-17  2.008125599488538 -2.460814027017948 -3.577575055983979e-16  1.482521285196868 -2.789563899556613 -4.886146623064541e-17  0.9057866143556688 -3.01678997208197 -2.439392613813594e-16  0.2964958724913082 -3.130681163554852 3.414395345104792e-16  -0.32338307292875 -3.126978161260848 2.926910878106614e-16  -1.29067345658392 -0.3506098753383553 -5.690421630247788  -1.068897680254163 -0.8451623229646739 -5.663999894259847  -0.6782440885714781 -1.219621806060448 -5.6187489875115  -0.168757542531344 -1.390394566692369 -5.560546895724229  0.3611301401510615 -1.294122251639114 -5.500717901478111  0.8191548613516448 -1.005201308695582 -5.449538098373106  1.16817203978903 -0.5892762115769014 -5.411042670828763  1.960898302630318 -0.551652302616722 -8.131516293641286e-17  1.751009740180289 -1.077278642631261 7.445724005953314e-16  1.394016468000002 -1.516729095803803 1.136104663605282e-15  0.9227767039454898 -1.830301465573364 3.434443593283319e-16  0.3780412068884804 -1.984007749105097 8.617772484356591e-16  -0.1885780664025548 -1.977994130030172 2.357202029695971e-16  -0.7327557451871473 -1.821291124380143 1.942410916395698e-17  -1.191068596016128 -1.491774666596192 2.975009434367945e-16  -1.480405544894888 -1.006855825633415 6.954512630084263e-16  -1.812414118534285 0.2561131097252937 -2.664867827914479  2.421751940242729 0.6298287624476981 -1.933377861698098  0.7556418177061754 1.42269463362527 -4.617654324361507  0.003134751711410342 1.574821943356493 -0.9318675177876981  1.015098001669947 1.51699057942374 -0.9441494884276413  0.6193243625380082 1.764115149411371 -1.862230514405671  -0.4757031201037318 1.549728101933577 -1.958273018773558  0.1126459993007786 1.698838152590054 -2.957602797129454  -0.3405660022430232 1.569615851499001 -4.678135257405353  1.818199099779932 0.7365610114574719 -3.763003518505052  -0.9541815370276669 1.23451227632913 -2.875526912859068  -1.269464226480212 1.016489154450913 -4.672047638709048  1.301562892980348 1.557566760682666 -2.802482532053872  -0.7813756340336595 1.414221906310649 -3.725761628685261  -1.58370798409762 0.5643609111372817 -3.581008460136619  -0.988817348255397 1.158392548936659 -1.014254585170146  -1.607700527190565 0.2800106654898483 -1.030081240453645  -1.388203055800784 0.7951310659851955 -1.943712885648593  0.8261955720421881 1.570157055202129 -3.620947225245673  1.681455131778566 1.410849015379531 -1.876189895849114  1.878739160554727 0.943024132521903 -0.9866418074548234  2.103426639579445 1.000735947836943 -2.593434794762663  1.62623803052506 0.6468498306152269 -4.727220189271843  -1.882943490361709 -0.1546739965127431 -1.761716647663214  0.05868355051519467 1.656538949473053 -3.863342338366238  2.465845305360337 0.2632819454094029 -2.663569745038379  1.994842599423799 0.5019775153043848 -0.4779055074204815  2.1671824130763 0.4980244878585698 -1.027636182799239  1.710213566460811 0.9718796190568162 -0.4957578884333736  1.845584590132108 0.2253887364997403 -4.583879812097906  1.579035044615276 0.2924902970866011 -5.101748935835201  1.409777182251665 0.7868327264427526 -5.07202467441607  -1.039178737375989 1.089168173550246 -5.170746090958521  -1.377687418630729 0.6683636420802941 -5.233117919580046  -1.641402128985454 0.4875654733502939 -4.648722230221863  -1.765467255797776 -0.2695484060062747 -1.079683539430899  -1.617858736076732 -0.08318463488274264 -0.5123563299218489  -1.474019211051276 0.4496529111656123 -0.5150171376928306  2.417677350191343 0.3274903893149403 -1.506992657970159 
[...]
<PointData  Vectors="displacement"> 
<DataArray  type="Float64"  Name="displacement"  NumberOfComponents="3" format="ascii">0.0000000000000000e+00 0.0000000000000000e+00 0.0000000000000000e+00  3.5885323669399516e-01 3.0261178587572174e-01 -5.1031364941022539e-01  -4.6177298973898917e-01 -1.3351259410148816e-01 -5.0988204393465686e-01  0.0000000000000000e+00 0.0000000000000000e+00 0.0000000000000000e+00  -4.3813931946992252e-01 3.2757570692324084e-01 -3.6431066098683312e-01  3.0340539317680010e-01 -2.5633955510385392e-01 -5.4048699814683343e-01  0.0000000000000000e+00 0.0000000000000000e+00 0.0000000000000000e+00  0.0000000000000000e+00 0.0000000000000000e+00 0.0000000000000000e+00  2.7423185362678998e-01 6.0191439344402221e-02 -2.8011552881935523e-02  4.2376695067982140e-01 1.2623683455374110e-01 -6.0830565567822951e-02  4.9277742701372346e-01 1.4665146831122830e-01 -1.2422181676219454e-01  5.3261344594169646e-01 1.6393575910561434e-01 -2.1802574411436246e-01  5.8325345846811083e-01 2.1243596354920968e-01 -3.2594296747860535e-01  5.9961572755107440e-01 2.6637697357138390e-01 -3.9313715856690035e-01  5.6237222077127469e-01 2.8872932672294360e-01 -4.2330720236821329e-01  4.9525717030731914e-01 2.9560672295036650e-01 -4.5202068552866542e-01  4.2814304421112570e-01 3.0505800613199097e-01 -4.8609745071172961e-01  1.8483608853098576e-01 4.4118331360357832e-01 -4.7438560424449616e-01  3.6083636496108215e-04 5.0763076870754431e-01 -4.5551460509311881e-01  -1.7240213241718988e-01 5.1945111228423635e-01 -4.3900649466554453e-01  -3.2470261937610334e-01 4.6026810109256916e-01 -4.5202078785060551e-01  -4.4459412490897410e-01 3.5225180621695795e-01 -4.6368032238529583e-01  -5.1187186875165580e-01 2.0636813536601770e-01 -4.8266054247815277e-01  -5.2417773903852294e-01 3.8730863686585841e-02 -4.9828164238221462e-01  -3.2069556573074448e-01 -3.0345224742819314e-02 -3.5601399730328012e-02  -4.4806834310792193e-01 -1.2245381988153300e-01 -4.9652815405649149e-02  -4.6669283582166832e-01 -2.1840866037236967e-01 -1.0915763334770102e-01  -5.1283932151194167e-01 -2.3484638614564318e-01 -2.0418414030317752e-01  -5.5673787561447785e-01 -2.3606514580997040e-01 -2.9067954768475107e-01  -5.5544503315503513e-01 -2.7628469912496512e-01 -3.5793624321970730e-01  -5.4595030855211557e-01 -2.6965994481020483e-01 -3.8690414443065357e-01  -5.3480754677462250e-01 -2.1531773223104006e-01 -4.1069071829113918e-01  -5.0499255371767504e-01 -1.7401847098961812e-01 -4.6136355258040240e-01  0.0000000000000000e+00 0.0000000000000000e+00 0.0000000000000000e+00  0.0000000000000000e+00 0.0000000000000000e+00 0.0000000000000000e+00  0.0000000000000000e+00 0.0000000000000000e+00 0.0000000000000000e+00  0.0000000000000000e+00 0.0000000000000000e+00 0.0000000000000000e+00  0.0000000000000000e+00 0.0000000000000000e+00 0.0000000000000000e+00  0.0000000000000000e+00 0.0000000000000000e+00 0.0000000000000000e+00  0.0000000000000000e+00 0.0000000000000000e+00 0.0000000000000000e+00  0.0000000000000000e+00 0.0000000000000000e+00 0.0000000000000000e+00  0.0000000000000000e+00 0.0000000000000000e+00 0.0000000000000000e+00  -4.8953550440635396e-01 2.3449564624384256e-01 -3.7112935844274175e-01  -5.1891391965453049e-01 1.2799380991925541e-01 -3.7709615501464400e-01  -5.1953119323909225e-01 2.0142644756851687e-02 -3.8897466086325372e-01  -4.8482845768540428e-01 -8.8419597583140108e-02 -3.9514329856709796e-01  -4.2714926730781588e-01 -1.9819130131198837e-01 -4.0333262109809465e-01  -3.3452834500927331e-01 -2.9217069265817297e-01 -4.1417115376675484e-01  -2.2124491283599620e-01 -3.5642683385981089e-01 -4.1980649814720039e-01  -9.4808348315658014e-02 -3.8848688112103025e-01 -4.2596770975539178e-01  3.7872448856961026e-02 -3.8957589409231214e-01 -4.4775930221462501e-01  1.1844494153907308e-01 -3.6088373177255423e-01 -4.6904922337309995e-01  2.0759037745844283e-01 -3.1181877606013952e-01 -4.9799773811240788e-01  2.3191762283609876e-01 -4.0619039199389567e-01 -5.0364985866772982e-01  2.0386811716153722e-01 -4.7020001142165962e-01 -4.3997106693168081e-01  2.1108612453463738e-01 -4.5757895161134710e-01 -3.5341122571093525e-01  2.0901064800157634e-01 -4.2612955699554572e-01 -2.8909979294115884e-01  1.9353309248157083e-01 -4.0811049651634818e-01 -2.4166524962785160e-01  1.5743349972843096e-01 -3.6151984275619331e-01 -1.7245249296816403e-01  1.4104104953779725e-01 -3.0090948281622754e-01 -1.2658804798634801e-01  1.0383437911034225e-01 -2.6073089142175254e-01 -8.3762155297716634e-02  5.1714381220569670e-02 -1.6789760753013699e-01 -2.0079748626340949e-02  0.0000000000000000e+00 0.0000000000000000e+00 0.0000000000000000e+00  0.0000000000000000e+00 0.0000000000000000e+00 0.0000000000000000e+00  0.0000000000000000e+00 0.0000000000000000e+00 0.0000000000000000e+00  0.0000000000000000e+00 0.0000000000000000e+00 0.0000000000000000e+00  0.0000000000000000e+00 0.0000000000000000e+00 0.0000000000000000e+00  0.0000000000000000e+00 0.0000000000000000e+00 0.0000000000000000e+00  0.0000000000000000e+00 0.0000000000000000e+00 0.0000000000000000e+00  0.0000000000000000e+00 0.0000000000000000e+00 0.0000000000000000e+00  0.0000000000000000e+00 0.0000000000000000e+00 0.0000000000000000e+00  0.0000000000000000e+00 0.0000000000000000e+00 0.0000000000000000e+00  0.0000000000000000e+00 0.0000000000000000e+00 0.0000000000000000e+00  0.0000000000000000e+00 0.0000000000000000e+00 0.0000000000000000e+00  0.0000000000000000e+00 0.0000000000000000e+00 0.0000000000000000e+00  0.0000000000000000e+00 0.0000000000000000e+00 0.0000000000000000e+00  0.0000000000000000e+00 0.0000000000000000e+00 0.0000000000000000e+00  -4.1058471689348525e-01 3.6556308561488454e-01 -3.4542649884145171e-01  -3.6386700672684619e-01 4.0311714594948161e-01 -3.2464314355296964e-01  -2.9360747799624332e-01 4.3774477577697829e-01 -2.9452810865836720e-01  -2.2018449454354544e-01 4.5456836947318480e-01 -2.4393166633622529e-01  -1.7590423933173663e-01 4.3503264513136664e-01 -1.8490261988526036e-01  -1.3717875686248787e-01 3.8739370333246403e-01 -1.2190426678841602e-01  -1.0435832726306782e-01 3.1830364382613308e-01 -6.2445883249798481e-02  -7.8138498086365582e-02 2.1774683083619792e-01 -5.4871693628278893e-03  -4.1136924565626044e-02 1.0819802894944940e-01 2.9673730354423000e-02  3.9031295985023690e-01 -1.7546459652397337e-01 -5.6521343830222426e-01  4.5914288011758342e-01 -6.5572099019956462e-02 -5.6602641205805815e-01  4.7960851213096106e-01 7.4496511098302687e-02 -5.5133364669382057e-01  4.5508442460445336e-01 2.2178747386165151e-01 -5.1475801660785259e-01  3.6815766910358394e-01 3.5313968197205375e-01 -4.7599086491083592e-01  2.4779561362927960e-01 4.5146923158854418e-01 -4.3864835874813757e-01  1.0764202761412968e-01 5.1134128286478586e-01 -4.0724020222372254e-01  -4.1868354829837959e-02 5.3908754063499520e-01 -3.9223087486320446e-01  -1.7209844424713863e-01 5.1340544744629402e-01 -3.7340185445921997e-01  -2.7931395577799734e-01 4.7449647497614267e-01 -3.6483227105906979e-01  -3.5988224794170875e-01 4.0930501816412618e-01 -3.5876724888024591e-01  0.0000000000000000e+00 0.0000000000000000e+00 0.0000000000000000e+00  0.0000000000000000e+00 0.0000000000000000e+00 0.0000000000000000e+00  0.0000000000000000e+00 0.0000000000000000e+00 0.0000000000000000e+00  0.0000000000000000e+00 0.0000000000000000e+00 0.0000000000000000e+00  0.0000000000000000e+00 0.0000000000000000e+00 0.0000000000000000e+00  0.0000000000000000e+00 0.0000000000000000e+00 0.0000000000000000e+00  0.0000000000000000e+00 0.0000000000000000e+00 0.0000000000000000e+00  0.0000000000000000e+00 0.0000000000000000e+00 0.0000000000000000e+00  0.0000000000000000e+00 0.0000000000000000e+00 0.0000000000000000e+00  0.0000000000000000e+00 0.0000000000000000e+00 0.0000000000000000e+00  0.0000000000000000e+00 0.0000000000000000e+00 0.0000000000000000e+00  0.0000000000000000e+00 0.0000000000000000e+00 0.0000000000000000e+00  0.0000000000000000e+00 0.0000000000000000e+00 0.0000000000000000e+00  0.0000000000000000e+00 0.0000000000000000e+00 0.0000000000000000e+00  0.0000000000000000e+00 0.0000000000000000e+00 0.0000000000000000e+00  -3.3810557241341704e-01 -2.8859291934577375e-01 -5.1531467807311193e-01  -1.6285882540005614e-01 -3.9618331691143777e-01 -5.2302245674035142e-01  4.6618760586909780e-02 -4.3229040281563397e-01 -5.2649681028602213e-01  2.4913236366706126e-01 -3.8131039603813599e-01 -5.4392674127884388e-01  4.0977514344874810e-01 -2.7454668943266752e-01 -5.5338666529329461e-01  4.8935246792469339e-01 -9.7042840856561341e-02 -5.5512021422910562e-01  4.6889446982466593e-01 1.1541876026918442e-01 -5.3995111265466189e-01  0.0000000000000000e+00 0.0000000000000000e+00 0.0000000000000000e+00  0.0000000000000000e+00 0.0000000000000000e+00 0.0000000000000000e+00  0.0000000000000000e+00 0.0000000000000000e+00 0.0000000000000000e+00  0.0000000000000000e+00 0.0000000000000000e+00 0.0000000000000000e+00  0.0000000000000000e+00 0.0000000000000000e+00 0.0000000000000000e+00  0.0000000000000000e+00 0.0000000000000000e+00 0.0000000000000000e+00  0.0000000000000000e+00 0.0000000000000000e+00 0.0000000000000000e+00  0.0000000000000000e+00 0.0000000000000000e+00 0.0000000000000000e+00  0.0000000000000000e+00 0.0000000000000000e+00 0.0000000000000000e+00  -6.9421963905268047e-01 9.3861928363924443e-02 -2.2886362322616310e-01  3.9903035312375162e-01 3.5327598925700304e-01 -1.6591097596031951e-01  -1.2848646629942168e-01 6.2204674191197429e-01 -3.7352190391744960e-01  -1.4501111342094730e-01 4.1637496056041429e-01 -7.6846614004924638e-02  5.8803594772227748e-02 4.1791937914383731e-01 -6.7556693781456276e-02  -8.7616905474976040e-02 6.0088642403560200e-01 -1.6939363965799875e-01  -3.9462209469458254e-01 5.3740969956052276e-01 -1.7374245939184724e-01  -2.9896166848788502e-01 6.5024650402906126e-01 -2.5166024100627521e-01  -4.6672721487172542e-01 4.6695246798343815e-01 -3.6498588415193212e-01  3.4009635666280674e-01 5.4671230627047562e-01 -3.7620760397527442e-01  -6.0394673444743607e-01 4.6331396968598287e-01 -2.2699941625801090e-01  -6.3965874281146406e-01 1.8368769371982568e-01 -3.7818202264343731e-01  7.7182098914343147e-02 6.4346897790707036e-01 -2.7961716222901861e-01  -5.7844388047481865e-01 4.6231764461985592e-01 -2.8416131138295236e-01  -7.2465668528693683e-01 1.4503625311812210e-01 -2.9459976064402754e-01  -3.6203016364742113e-01 3.1612747882442405e-01 -8.5660701891622226e-02  -4.6385441068253075e-01 1.1274216708534007e-01 -7.1396901277829619e-02  -6.1379305942357265e-01 2.9603056570066349e-01 -1.5700342550437191e-01  -8.1596023348495070e-02 6.7242657915751691e-01 -3.2034623571908438e-01  1.9465438546143665e-01 5.2778847363032122e-01 -1.5696338763452133e-01  2.7071842452189998e-01 3.1396675374526961e-01 -6.0369361176580892e-02  3.2913451803897598e-01 5.0866486067907968e-01 -2.7528233794777818e-01  2.2848774621181311e-01 5.0538417199830232e-01 -4.2267305803798394e-01  -6.0777518274509690e-01 1.0003691124150284e-02 -1.2805378647110874e-01  -3.4289315511848162e-01 6.1544129689428284e-01 -3.0436281391952646e-01  4.9571435805404979e-01 3.4811919493585319e-01 -3.0210854773233453e-01  2.2086768551135699e-01 1.1845937089547881e-01 -3.2840533177981704e-02  3.5568607530834101e-01 2.2561380992431856e-01 -5.7241749881187264e-02  1.6926667004709942e-01 1.9107982321264291e-01 -3.6264466508780291e-02  3.7443662189099197e-01 4.1656900006127412e-01 -4.3824044177870747e-01  2.8095694945045113e-01 4.2116431042105479e-01 -4.6807457441049166e-01  1.2302284798236558e-01 5.1415489066212394e-01 -4.3756524476256237e-01  -5.8343147962533981e-01 1.9092230737262963e-01 -4.3324759665686968e-01  -5.7423858364630265e-01 1.4590193662389684e-02 -4.5286684211254885e-01  -6.2778657466574117e-01 -1.8194644976007913e-02 -3.9216466581475801e-01  -4.7789792857830049e-01 1.1695257689951992e-03 -6.6558403135433652e-02  -2.7680526635058972e-01 3.0714003363110951e-02 -3.9393705671816881e-02  -2.6092748995521953e-01 9.4458465926840596e-02 -4.1148797283304520e-02  4.2968759964452063e-01 2.4589428709518477e-01 -1.0334760551527462e-01  4.6688075077513225e-01 2.6089011714985028e-01 -1.8777782437093049e-01  3.5060068567185071e-01 3.4919492594866469e-01 -9.8882146856520498e-02  5.1884750740909136e-01 2.5524392352462094e-01 -2.6462181422360359e-01  5.5665652842345481e-01 3.1708653596787811e-01 -3.5424131473312648e-01  4.3571362371263689e-01 3.5471771319177720e-01 -2.3249591696291691e-01  4.9567562077142852e-01 4.2129908313138009e-01 -3.8917949379384370e-01  4.2887348786506324e-01 4.3238794829974198e-01 -4.0948321579430291e-01  4.5789128597231460e-01 4.6152380761579193e-01 -3.6630974921279380e-01  2.8461498054132178e-01 5.3185423124840181e-01 -3.9318137231398476e-01  -5.9440201090540143e-02 5.7703083782092579e-01 -4.1088977417948158e-01  -2.3043867263015533e-01 5.6208773989249039e-01 -4.0683141842553316e-01  5.2575148717589226e-02 5.8883634890353576e-01 -4.0117437239838255e-01  -3.9666495194065632e-01 4.7541937603933593e-01 -4.0857376021616404e-01  -5.1518673332181175e-01 3.4462423872329989e-01 -4.1847882943134340e-01  -3.1035743304599944e-01 5.7083655303936454e-01 -3.6974628041154001e-01  -5.8021809532778157e-01 3.3649048647213620e-01 -3.6985019674402264e-01  -5.8421722145719823e-01 -1.1315619580655081e-01 -1.5440200384968136e-01  -5.3504092006645210e-01 -6.3184897384412186e-02 -8.7892849054157812e-02  -5.5819926843351819e-01 7.3351918364656210e-02 -9.6803116651351356e-02  -6.6064792521004423e-01 -9.0656318323332999e-02 -2.9720548670343294e-01  -6.2796615215725116e-01 -8.3320305882351245e-02 -2.1866404554303007e-01  -6.6299695715312301e-01 5.6615347527492511e-02 -1.7893812025435440e-01  -6.7656694664032591e-01 -3.6664923453468348e-02 -3.4617633678855408e-01  -6.8275173840283854e-01 -7.2133047191927688e-02 -3.2698281848995869e-01  -7.1737019362619370e-01 1.2345239231634562e-01 -2.6846951940049490e-01  -6.9413561181892147e-01 1.6918376070890523e-01 -3.2529619868776249e-01  -2.2386317109836590e-01 1.5809525458065229e-01 -4.7910873464331871e-02  -1.7465461527329643e-01 2.1501267150253320e-01 -5.2950357829265021e-02  -4.2642162736109235e-01 2.1800291720664211e-01 -8.1800958963122464e-02  -1.0636158063541983e-01 2.4326878265122703e-01 -5.0966619951501320e-02  -4.3490545815447743e-02 2.5700871361625588e-01 -4.7456748061150272e-02  -2.5616970226246644e-01 3.8142539068769188e-01 -8.4936394473885055e-02  2.4454785631081177e-02 2.5876406762877563e-01 -4.4359000651633985e-02  9.5368420010303240e-02 2.2723991365114926e-01 -3.6171084751845509e-02  -4.5948461447788622e-02 4.2415632478896514e-01 -6.8454454711274787e-02  1.6570848120609263e-01 3.7679432144407882e-01 -6.2057320532514768e-02  -6.8749650943967611e-01 2.9013103486149927e-01 -2.2365311330741805e-01  -6.9065387382214061e-01 3.2018425102928111e-01 -2.5277515519165605e-01  -6.2464437055857824e-01 3.9020720375718265e-01 -1.9404705043713388e-01  -6.7485610616943270e-01 2.1140559318193591e-01 -1.8683804277475660e-01  -6.3303188537689070e-01 1.5360315077471631e-01 -1.4266751162655769e-01  3.0776032722205438e-01 4.4819583481971625e-01 -1.5917191617306464e-01  2.5049334422869929e-01 4.3646565287380507e-01 -9.7811516022043743e-02  2.5409426620296843e-01 5.2126869892367200e-01 -2.1027043905611162e-01  3.6353687967776088e-01 4.3374571664916411e-01 -2.2219581111297945e-01  4.1837772131474399e-01 4.3770372004659175e-01 -2.9401080800183993e-01  -2.3539945095414236e-01 6.2921627141724068e-01 -3.3834937662951525e-01  -4.1217665019206873e-01 5.5312427055946478e-01 -3.2910379593371547e-01  1.1017843079495973e-01 6.2082062683774031e-01 -3.7175941803000140e-01  1.3860458708512485e-01 6.4300266019388486e-01 -3.5144699334910678e-01  -1.0090081191083576e-01 6.5484969763362644e-01 -3.4546967270866058e-01  -2.1581746480191846e-01 6.5585493502552783e-01 -3.1154676303609546e-01  -1.3148575412093666e-01 5.2427696015462399e-01 -1.1329033038543654e-01  -6.0776666455986247e-03 5.2661973360896353e-01 -1.1119481357404248e-01  -2.7464847803923370e-01 4.9474268709773850e-01 -1.2041629121081814e-01  -2.4275287386519212e-01 5.8743810300383625e-01 -1.7225617167894952e-01  -4.0088728402947849e-01 4.3403647178601729e-01 -1.2734840040538750e-01  5.9622832126804970e-02 5.8086859549348158e-01 -1.6012207421226612e-01  1.3179394229706465e-01 4.9636715304710277e-01 -1.0649173716073430e-01  -3.6077221994914127e-01 6.1096862137765695e-01 -2.1743901770990959e-01  -1.9364335730642604e-01 6.4918729707382783e-01 -2.2385748994107108e-01  -1.0736451002879141e-01 6.6894014368002641e-01 -2.6938589727305090e-01  -1.2447555363870702e-02 6.3687669555574555e-01 -2.1942764227917896e-01  1.3775850121651162e-01 5.9347382488782574e-01 -2.2247234657961518e-01  -5.1093838640733924e-01 5.2460580478322139e-01 -2.0451356140405491e-01  -4.6828670304634545e-01 5.7867951201981460e-01 -2.3682038596554680e-01  -5.2625000794862420e-01 4.3413409421181975e-01 -1.6567704510330938e-01  -5.0418651410639170e-01 3.2416871988110962e-01 -1.2108293261954388e-01  -5.9697809074017194e-01 4.6907602213662131e-01 -2.5360762603428799e-01  -4.5287301421596332e-01 5.8191405049510403e-01 -2.6251584799011080e-01  -1.9801054142244787e-01 6.6599231214895060e-01 -2.8763343228863747e-01  6.1796500865212243e-03 6.6887185153663009e-01 -3.0653284632577943e-01  -4.6990004037590510e-01 5.5171571929838303e-01 -2.8891392453448234e-01  -3.2539581078110141e-01 6.3895167040868128e-01 -2.7832943650261815e-01  -5.2569702647280514e-01 4.7189428186093474e-01 -3.2050088305342278e-01  -6.3219808404997635e-01 3.3578066783228683e-01 -3.2465822331785688e-01  2.1302283148412221e-01 6.2423840746273895e-01 -3.3996447745274477e-01  3.5378964554318570e-01 5.4663171142699662e-01 -3.5199851287451811e-01  2.1326007142694017e-01 5.8900177690654842e-01 -2.8067789060286791e-01  -6.8252287130282152e-01 3.1729136884966502e-01 -2.7898582202075528e-01  -5.6210718828446860e-01 2.0293474373245993e-01 -1.1386085123531921e-01  7.1078494703916528e-02 -4.0268605952730419e-01 -2.2334603730743113e-01  -2.6522731451446091e-01 2.7380615307965182e-02 -9.3002929975534825e-03  -2.7473320067269080e-01 -3.8366258441094953e-01 -3.8750299449870235e-01  -2.5843221310027820e-01 -7.2698474018292727e-02 -2.7829952773289111e-02  -9.1874583653409711e-02 -2.1388014120070781e-01 -5.2368761502672910e-02  -4.7657607689634318e-01 -2.0806229484765318e-01 -3.7240138896776476e-01  -5.4662658541966402e-01 3.8025490555015209e-02 -3.4287300178850499e-01  -1.9851949361555563e-01 2.7588067607859573e-01 -5.1366609366927204e-02  -4.6407357313867786e-01 -2.3700742046186066e-01 -3.1245277553007111e-01  -3.9588045765453767e-01 3.6073445220919875e-01 -2.7414465880590683e-01  -2.3295562942356590e-01 -4.1188384562947061e-01 -3.2417516175726235e-01  -3.3723027258949201e-01 -3.0997433716101119e-01 -2.1104766639189212e-01  -1.4507899454278139e-01 -3.8850811576840738e-01 -2.1682435216848689e-01  -2.2665990362930835e-01 -2.9916467428445453e-01 -1.4853615564904299e-01  -4.2703970316753670e-01 -5.1783735677552060e-02 -1.1351697642768674e-01  -4.2546107132241506e-01 1.1619625894469467e-01 -1.0132104877609636e-01  -4.9724793518011401e-02 -4.4718649502132174e-01 -3.1735719944200524e-01  -5.2579749448102753e-01 -1.1271013716188605e-02 -2.1484881055510496e-01  -5.1908684626060986e-01 1.6109131117988498e-01 -2.2614614455522164e-01  5.4051624284103116e-02 -3.1849213722210740e-01 -1.3969848793173084e-01  -3.4424710172832018e-01 2.5194986189086049e-01 -9.3128608935404367e-02  -1.9988847336086574e-01 -1.7755492920029825e-01 -5.7745451383952415e-02  -9.9936248625300705e-02 -4.0937938930541040e-01 -3.9332656071080119e-01  -1.7584920833695870e-02 -3.6020053221510728e-01 -1.7471497582762793e-01  -2.3537682667827142e-01 1.2768629250550173e-01 -8.6920299572695644e-03  -2.9086927693844578e-01 3.8493580608076744e-01 -1.6856864678081709e-01  8.8941922197781839e-02 -4.4576473877312106e-01 -3.0469752098273079e-01  3.1131413565800771e-02 -4.4044613324797632e-01 -4.2417964905845867e-01  -4.5525886082046318e-01 2.9914242406418928e-01 -3.3280637168540955e-01  -1.5727165778060423e-01 1.5638315769396235e-01 4.0665717544