<?xml version="1.0"?>
<VTKFile type="UnstructuredGrid"  version="0.1"  >
<UnstructuredGrid>
<Piece  NumberOfPoints="1268" NumberOfCells="4847">
<Points>
<DataArray  type="Float64"  NumberOfComponents="3"  format="ascii">1.994716987487452 0.01317707561264319 -1.202466945460223e-11  1.374072606111497 -0.08614134488653273 -5.388997575085332  -1.285941478930618 0.1916557790035214 -5.691288663606836  -1.59032616235459 -0.4515196446136259 1.626303258728257e-17  0.4950030257755884 2.521650519233041 -5.495391852657774  -0.4107718940653654 -2.429115409112172 -5.58531208084276  -0.9314707163843408 -3.006923447963563 4.87890977618477e-17  1.161824811771535 2.948440156756841 -3.391384395534658e-14  2.146749234505421 0.002696741478414759 -0.5615078450779066  2.330988047973839 -0.000873250973709995 -1.113141311680313  2.540713632977715 -0.1384292375506191 -1.637427654548237  2.645241452520652 -0.2872312815961211 -2.18637082393926  2.504842461151312 -0.2752146673621067 -2.746850782899552  2.287876352721185 -0.2088259978706829 -3.283011632728322  2.137771360922677 -0.2093380261300688 -3.844996501809416  1.970142554575494 -0.2193701374385486 -4.401638277082749  1.701580801829277 -0.1696632515169769 -4.915066532844666  1.398049690886424 0.4419377546899956 -5.387643705321969  1.183972204621215 0.9208338616597355 -5.413149504812257  0.7621482426349403 1.234356207118232 -5.461782499987256  0.2539805730796886 1.370727420898931 -5.519751404145364  -0.2689415860383004 1.319053689498898 -5.578906487138381  -0.7357170559581984 1.076180709179107 -5.631191713357971  -1.086003096318238 0.6812820615514149 -5.669884670156524  -1.65706961757681 -0.5275128747266272 -0.6240725009925172  -1.829082870387909 -0.8347372240299333 -1.153553189134448  -2.030635262011336 -1.097965926806997 -1.693320688638939  -2.148557703924963 -0.9683820133813712 -2.295450526931833  -2.119047321408695 -0.7521727279271558 -2.890676896601294  -1.972500555455803 -0.7106310836492745 -3.509380855831461  -1.885028119342598 -0.4902108162504233 -4.093718100793141  -1.832050776792238 -0.1313823297003599 -4.617858136599065  -1.636180550340053 0.1151199882480144 -5.165527944859976  -1.540434086810702 0.1014447694855235 -7.644826989049428e-17  -1.339902801239663 0.6191128040412099 2.218327606354497e-17  -0.9949589579071262 1.053322092476122 2.12059320661159e-17  -0.5243975458638882 1.346285776146202 7.754217898549941e-16  0.01399251627036286 1.481823287560149 3.252316763596149e-17  0.5696211504784076 1.47677978548424 -7.207855520904863e-17  1.105448032340458 1.331487337928338 1.951563910473908e-16  1.561367740818086 1.018090979386763 -2.179459114756194e-16  1.860006992193919 0.551530302300456 1.369433074745588e-16  -0.152869286718376 2.506583809965366 -5.568804938302105  -0.7781210310064858 2.335338381675429 -5.639249366957451  -1.340550096787874 2.011723800088065 -5.702178028336585  -1.803922993566052 1.555830170950866 -5.753534898075912  -2.144678763029901 1.000979069722826 -5.790734833138769  -2.346903237737564 0.3811866585909049 -5.812061421922149  -2.406990243842066 -0.2684488461825228 -5.817196438260218  -2.318433628103212 -0.9144163570965761 -5.805488779558074  -2.059391262210163 -1.511004864267824 -5.774580158166454  -1.615755841275718 -1.983465489741105 -5.72306417450185  -1.043145925381342 -2.287058241276404 -5.657361969815248  -0.6986882361605687 -2.420627649803484 -5.024556445072709  -0.8272574030199392 -2.685291244074475 -4.476216325063944  -0.8113210073272845 -3.118860027310894 -4.01596683617901  -0.7618552434953355 -3.481598098596065 -3.504026669625047  -0.7509882165597778 -3.609083979854663 -2.886473298216772  -0.7986167670519319 -3.732483084086931 -2.268445488219849  -0.8276969497603353 -3.810997815301134 -1.64593496945388  -0.7425506523451623 -3.557242155569485 -1.078322423839125  -0.7147449622328144 -3.21189056194362 -0.5511080601316157  -1.482234509376526 -2.778582553401298 -5.854479658363816e-16  -1.970737176894139 -2.437284655419533 2.764697292186607e-16  -2.362818572203899 -1.988727212877528 2.439101268600111e-16  -2.642390785384022 -1.462244173776716 5.051059276813266e-16  -2.812149102113852 -0.89052423419162 2.276851973687203e-16  -2.877946727920729 -0.2976446157883296 -1.219909928720168e-16  -2.842947107925845 0.2978601752284433 4.065446096494693e-17  -2.70313036896374 0.8776122116387211 -5.041496169361013e-16  -2.452324348076021 1.418519584933707 4.379274460317988e-16  -2.098265626135573 1.898294456130726 1.951060033519619e-16  -1.658391347368763 2.301023318502569 -1.789574489620802e-16  -1.154148079923361 2.619757341302747 -2.081203863085907e-15  -0.6042202207747882 2.851073703499478 -3.577841418755692e-16  -0.02416138323675775 2.990516581461941 4.065982498622179e-16  0.5710641261211448 3.028216945076794 -1.46882551317968e-16  0.6414151130412097 2.696325287154043 -4.983333021490838  0.771852374565919 2.778456367279237 -4.445188759107248  0.8805845204306011 2.73078881179073 -3.897720120696569  0.9481597620953167 2.69798349057175 -3.343104559074628  0.9815370707090804 2.778214865778854 -2.789250505759619  1.013475345489448 2.861817704396183 -2.235671116027784  1.055849759321274 2.898356228459238 -1.677594140621302  1.093646323460014 2.92793989028903 -1.118725590781912  1.124098871622056 2.957526991478201 -0.5594169689370629  0.2477015793419729 -2.415655802610486 -5.510682951113449  0.8844491790088972 -2.245867158009595 -5.438931443942415  1.464891069119211 -1.932330028996181 -5.373934600293736  1.955087092649627 -1.489613175355717 -5.319502697776375  2.318355026965356 -0.937054784961175 -5.279744576064058  2.524994411863564 -0.307899182343253 -5.257941630215678  2.574632820450045 0.3531084349228537 -5.254020561031156  2.465743861849647 1.006614152640354 -5.268052816559671  2.183897076015212 1.604484044160622 -5.301550147358176  1.722560240631265 2.07491696755195 -5.35506775502591  1.13806318635062 2.378906583716481 -5.422118662603529  1.742182153284979 2.73179858498085 5.854691697147836e-16  2.262480931380501 2.395264875892136 -2.601681534737615e-16  2.698000706832733 1.954727370266727 -3.903113804560263e-16  3.021530388777258 1.426473918441798 1.707421408502106e-16  3.223363606607101 0.8405687193648443 -2.844806418042028e-16  3.305434793487241 0.2261994274297442 -4.472186606099012e-16  3.269241566985055 -0.3926051469820059 3.171555149681837e-16  3.113478077610213 -0.9924495549400153 3.510830505762065e-16  2.840400132149515 -1.548806515270482 -1.707368614952523e-16  2.466120284856568 -2.042983582774378 9.732831365154574e-17  2.008125599488538 -2.460814027017948 -3.577575055983979e-16  1.482521285196868 -2.789563899556613 -4.886146623064541e-17  0.9057866143556688 -3.01678997208197 -2.439392613813594e-16  0.2964958724913082 -3.130681163554852 3.414395345104792e-16  -0.32338307292875 -3.126978161260848 2.926910878106614e-16  -1.29067345658392 -0.3506098753383553 -5.690421630247788  -1.068897680254163 -0.8451623229646739 -5.663999894259847  -0.6782440885714781 -1.219621806060448 -5.6187489875115  -0.168757542531344 -1.390394566692369 -5.560546895724229  0.3611301401510615 -1.294122251639114 -5.500717901478111  0.8191548613516448 -1.005201308695582 -5.449538098373106  1.16817203978903 -0.5892762115769014 -5.411042670828763  1.960898302630318 -0.551652302616722 -8.131516293641286e-17  1.751009740180289 -1.077278642631261 7.445724005953314e-16  1.394016468000002 -1.516729095803803 1.136104663605282e-15  0.9227767039454898 -1.830301465573364 3.434443593283319e-16  0.3780412068884804 -1.984007749105097 8.617772484356591e-16  -0.1885780664025548 -1.977994130030172 2.357202029695971e-16  -0.7327557451871473 -1.821291124380143 1.942410916395698e-17  -1.191068596016128 -1.491774666596192 2.975009434367945e-16  -1.480405544894888 -1.006855825633415 6.954512630084263e-16  -1.812414118534285 0.2561131097252937 -2.664867827914479  2.421751940242729 0.6298287624476981 -1.933377861698098  0.7556418177061754 1.42269463362527 -4.617654324361507  0.003134751711410342 1.574821943356493 -0.9318675177876981  1.015098001669947 1.51699057942374 -0.9441494884276413  0.6193243625380082 1.764115149411371 -1.862230514405671  -0.4757031201037318 1.549728101933577 -1.958273018773558  0.1126459993007786 1.698838152590054 -2.957602797129454  -0.3405660022430232 1.569615851499001 -4.678135257405353  1.818199099779932 0.7365610114574719 -3.763003518505052  -0.9541815370276669 1.23451227632913 -2.875526912859068  -1.269464226480212 1.016489154450913 -4.672047638709048  1.301562892980348 1.557566760682666 -2.802482532053872  -0.7813756340336595 1.414221906310649 -3.725761628685261  -1.58370798409762 0.5643609111372817 -3.581008460136619  -0.988817348255397 1.158392548936659 -1.014254585170146  -1.607700527190565 0.2800106654898483 -1.030081240453645  -1.388203055800784 0.7951310659851955 -1.943712885648593  0.8261955720421881 1.570157055202129 -3.620947225245673  1.681455131778566 1.410849015379531 -1.876189895849114  1.878739160554727 0.943024132521903 -0.9866418074548234  2.103426639579445 1.000735947836943 -2.593434794762663  1.62623803052506 0.6468498306152269 -4.727220189271843  -1.882943490361709 -0.1546739965127431 -1.761716647663214  0.05868355051519467 1.656538949473053 -3.863342338366238  2.465845305360337 0.2632819454094029 -2.663569745038379  1.994842599423799 0.5019775153043848 -0.4779055074204815  2.1671824130763 0.4980244878585698 -1.027636182799239  1.710213566460811 0.9718796190568162 -0.4957578884333736  1.845584590132108 0.2253887364997403 -4.583879812097906  1.579035044615276 0.2924902970866011 -5.101748935835201  1.409777182251665 0.7868327264427526 -5.07202467441607  -1.039178737375989 1.089168173550246 -5.170746090958521  -1.377687418630729 0.6683636420802941 -5.233117919580046  -1.641402128985454 0.4875654733502939 -4.648722230221863  -1.765467255797776 -0.2695484060062747 -1.079683539430899  -1.617858736076732 -0.08318463488274264 -0.5123563299218489  -1.474019211051276 0.4496529111656123 -0.5150171376928306  2.417677350191343 0.3274903893149403 -1.506992657970159 
[...]
<PointData  Vectors="displacement"> 
<DataArray  type="Float64"  Name="displacement"  NumberOfComponents="3" format="ascii">0.0000000000000000e+00 0.0000000000000000e+00 0.0000000000000000e+00  3.8849131842365886e-01 3.1944172484351807e-01 -5.8222295619865161e-01  -5.0215210098985885e-01 -1.3222405125918027e-01 -5.8153872730384182e-01  0.0000000000000000e+00 0.0000000000000000e+00 0.0000000000000000e+00  -4.5508391820030819e-01 3.5657433320314841e-01 -4.1868452177423676e-01  3.0687752734615326e-01 -2.7669162549040999e-01 -6.0368106735780702e-01  0.0000000000000000e+00 0.0000000000000000e+00 0.0000000000000000e+00  0.0000000000000000e+00 0.0000000000000000e+00 0.0000000000000000e+00  3.0181417350145889e-01 7.0499577763010843e-02 -2.6441274215934018e-02  4.6513224965834971e-01 1.4120922227272684e-01 -6.4433874679555109e-02  5.3810336502151446e-01 1.5993829491294329e-01 -1.3753286512386712e-01  5.7848378465133532e-01 1.7560270424077343e-01 -2.4259095181072088e-01  6.2994213334979465e-01 2.2555746506527669e-01 -3.6201323440868055e-01  6.4629862230718615e-01 2.8196805607151604e-01 -4.3883199583582516e-01  6.0532886589693047e-01 3.0465990227735701e-01 -4.7571896368292649e-01  5.3333016263136024e-01 3.1100246536213033e-01 -5.1157526188883229e-01  4.6176445812020228e-01 3.2084811282590914e-01 -5.5269901202339233e-01  2.0622779853170434e-01 4.7014230523405826e-01 -5.4457353779039097e-01  1.0294529073335090e-02 5.4467234326894531e-01 -5.2441496001522669e-01  -1.7450396197872725e-01 5.6127853934770533e-01 -5.0800603971112401e-01  -3.3930492882093233e-01 5.0082344690692371e-01 -5.2123537892522720e-01  -4.7030645157824030e-01 3.8671104385325916e-01 -5.3321498780707099e-01  -5.4676859296046687e-01 2.3203575789853326e-01 -5.5287287234327109e-01  -5.6355667727415770e-01 5.2890440961410656e-02 -5.6954063208327599e-01  -3.5415561929079092e-01 -3.6480607059754873e-02 -3.2877925732747233e-02  -4.9312018524565687e-01 -1.3671011663278845e-01 -5.2030634479209595e-02  -5.1434335219235772e-01 -2.3925332503213331e-01 -1.2199499875982388e-01  -5.6424693782003810e-01 -2.5435984760481778e-01 -2.2910569095461344e-01  -6.1088629598426214e-01 -2.5202351737804718e-01 -3.2559557963156821e-01  -6.0985049439370320e-01 -2.9235686751941936e-01 -4.0235888510725609e-01  -5.9869007445624134e-01 -2.8261878305723709e-01 -4.3719591317588913e-01  -5.8441018272803780e-01 -2.2175759241149262e-01 -4.6606931691222253e-01  -5.4980462761596005e-01 -1.7575933109223724e-01 -5.2454192907295416e-01  0.0000000000000000e+00 0.0000000000000000e+00 0.0000000000000000e+00  0.0000000000000000e+00 0.0000000000000000e+00 0.0000000000000000e+00  0.0000000000000000e+00 0.0000000000000000e+00 0.0000000000000000e+00  0.0000000000000000e+00 0.0000000000000000e+00 0.0000000000000000e+00  0.0000000000000000e+00 0.0000000000000000e+00 0.0000000000000000e+00  0.0000000000000000e+00 0.0000000000000000e+00 0.0000000000000000e+00  0.0000000000000000e+00 0.0000000000000000e+00 0.0000000000000000e+00  0.0000000000000000e+00 0.0000000000000000e+00 0.0000000000000000e+00  0.0000000000000000e+00 0.0000000000000000e+00 0.0000000000000000e+00  -5.1116950104065451e-01 2.5967267429769308e-01 -4.2603471017553662e-01  -5.4458590984403465e-01 1.4964502497670398e-01 -4.3189176862984685e-01  -5.4758129222769059e-01 3.6002537089094198e-02 -4.4488071679574859e-01  -5.1539092278247467e-01 -7.8633981038113782e-02 -4.5276967939583451e-01  -4.5833162133990296e-01 -1.9461097105836977e-01 -4.6081755056662155e-01  -3.6354232314631191e-01 -2.9508964552565392e-01 -4.7241368715923576e-01  -2.4768249812242221e-01 -3.6497874030044442e-01 -4.7715528063099028e-01  -1.1731763427739107e-01 -4.0127257252235382e-01 -4.8489689302710687e-01  2.1190299105820376e-02 -4.0554580059500633e-01 -5.0734824683945801e-01  1.0692468108386796e-01 -3.8040622039166894e-01 -5.2888605981207737e-01  2.0420785708559708e-01 -3.3262869614305440e-01 -5.6067943570149925e-01  2.3128890424043305e-01 -4.3482713571422427e-01 -5.6262509412269934e-01  2.0175646262574842e-01 -5.0321825834152512e-01 -4.9338868171326866e-01  2.0945750005885622e-01 -4.9169674483629694e-01 -3.9912667850745204e-01  2.0893589172534949e-01 -4.6050537481786497e-01 -3.2903295088650086e-01  1.9359461366317773e-01 -4.4442008114581211e-01 -2.7445455740194530e-01  1.5854641269830436e-01 -3.9633679067220245e-01 -1.9768213469222182e-01  1.4261132853822556e-01 -3.3034997337410271e-01 -1.4377648501039381e-01  1.0273036968058129e-01 -2.8656097121244783e-01 -9.3568367606128855e-02  5.0973313611836692e-02 -1.8683158873555317e-01 -2.3228435218879486e-02  0.0000000000000000e+00 0.0000000000000000e+00 0.0000000000000000e+00  0.0000000000000000e+00 0.0000000000000000e+00 0.0000000000000000e+00  0.0000000000000000e+00 0.0000000000000000e+00 0.0000000000000000e+00  0.0000000000000000e+00 0.0000000000000000e+00 0.0000000000000000e+00  0.0000000000000000e+00 0.0000000000000000e+00 0.0000000000000000e+00  0.0000000000000000e+00 0.0000000000000000e+00 0.0000000000000000e+00  0.0000000000000000e+00 0.0000000000000000e+00 0.0000000000000000e+00  0.0000000000000000e+00 0.0000000000000000e+00 0.0000000000000000e+00  0.0000000000000000e+00 0.0000000000000000e+00 0.0000000000000000e+00  0.0000000000000000e+00 0.0000000000000000e+00 0.0000000000000000e+00  0.0000000000000000e+00 0.0000000000000000e+00 0.0000000000000000e+00  0.0000000000000000e+00 0.0000000000000000e+00 0.0000000000000000e+00  0.0000000000000000e+00 0.0000000000000000e+00 0.0000000000000000e+00  0.0000000000000000e+00 0.0000000000000000e+00 0.0000000000000000e+00  0.0000000000000000e+00 0.0000000000000000e+00 0.0000000000000000e+00  -4.2508561522137400e-01 3.9644364953647759e-01 -3.9515702881204468e-01  -3.7650285825823593e-01 4.3615449792023653e-01 -3.7068458393324416e-01  -3.0329555852236706e-01 4.7341404983180124e-01 -3.3507324413175099e-01  -2.2776807659203874e-01 4.9201500533967130e-01 -2.7931755145745846e-01  -1.8206490701434208e-01 4.7202172667282555e-01 -2.1350917520880852e-01  -1.4270728833683205e-01 4.2229781446273895e-01 -1.4359065241852664e-01  -1.0830963160439630e-01 3.4921563683524759e-01 -7.6965048118786725e-02  -8.1198349753217533e-02 2.4034252403805942e-01 -1.1828505527220189e-02  -4.3742078320662646e-02 1.2098469920205365e-01 2.9950041266489362e-02  4.0066410191769647e-01 -1.9363790375382831e-01 -6.2795313118675655e-01  4.7625878691727508e-01 -7.9648837092686997e-02 -6.2864134987858855e-01  5.0028136644846366e-01 6.6695000742089783e-02 -6.1326484369689627e-01  4.7851124012794238e-01 2.2091363689960372e-01 -5.7509880903876043e-01  3.9076780496114732e-01 3.5951328604030303e-01 -5.3460389904254391e-01  2.6760957080692299e-01 4.6663677439511486e-01 -4.9601660013265220e-01  1.2313303932973294e-01 5.3254342275286504e-01 -4.6346994690923227e-01  -3.3279142522794333e-02 5.6534068034237250e-01 -4.4682438079986958e-01  -1.7022617616258851e-01 5.4184531319303653e-01 -4.2772133852867894e-01  -2.8393198381370710e-01 5.0529140008027296e-01 -4.1787083339051262e-01  -3.7112847280452177e-01 4.3971366469276107e-01 -4.1328602209404863e-01  0.0000000000000000e+00 0.0000000000000000e+00 0.0000000000000000e+00  0.0000000000000000e+00 0.0000000000000000e+00 0.0000000000000000e+00  0.0000000000000000e+00 0.0000000000000000e+00 0.0000000000000000e+00  0.0000000000000000e+00 0.0000000000000000e+00 0.0000000000000000e+00  0.0000000000000000e+00 0.0000000000000000e+00 0.0000000000000000e+00  0.0000000000000000e+00 0.0000000000000000e+00 0.0000000000000000e+00  0.0000000000000000e+00 0.0000000000000000e+00 0.0000000000000000e+00  0.0000000000000000e+00 0.0000000000000000e+00 0.0000000000000000e+00  0.0000000000000000e+00 0.0000000000000000e+00 0.0000000000000000e+00  0.0000000000000000e+00 0.0000000000000000e+00 0.0000000000000000e+00  0.0000000000000000e+00 0.0000000000000000e+00 0.0000000000000000e+00  0.0000000000000000e+00 0.0000000000000000e+00 0.0000000000000000e+00  0.0000000000000000e+00 0.0000000000000000e+00 0.0000000000000000e+00  0.0000000000000000e+00 0.0000000000000000e+00 0.0000000000000000e+00  0.0000000000000000e+00 0.0000000000000000e+00 0.0000000000000000e+00  -3.7334289978021862e-01 -2.9979760785110443e-01 -5.8811820316059438e-01  -1.8826170755986749e-01 -4.1834548631216439e-01 -5.9660007729181086e-01  3.4448205258244755e-02 -4.6016441241148037e-01 -6.0100703037099645e-01  2.5157892140341803e-01 -4.1035781738806043e-01 -6.1865393453540196e-01  4.2554098136117369e-01 -2.9792331717539094e-01 -6.2882721434676725e-01  5.1607448448447912e-01 -1.1031411655340148e-01 -6.3111406231038814e-01  5.0076427928677769e-01 1.1687530939759838e-01 -6.1458622596963119e-01  0.0000000000000000e+00 0.0000000000000000e+00 0.0000000000000000e+00  0.0000000000000000e+00 0.0000000000000000e+00 0.0000000000000000e+00  0.0000000000000000e+00 0.0000000000000000e+00 0.0000000000000000e+00  0.0000000000000000e+00 0.0000000000000000e+00 0.0000000000000000e+00  0.0000000000000000e+00 0.0000000000000000e+00 0.0000000000000000e+00  0.0000000000000000e+00 0.0000000000000000e+00 0.0000000000000000e+00  0.0000000000000000e+00 0.0000000000000000e+00 0.0000000000000000e+00  0.0000000000000000e+00 0.0000000000000000e+00 0.0000000000000000e+00  0.0000000000000000e+00 0.0000000000000000e+00 0.0000000000000000e+00  -7.5546933702776142e-01 1.0514926606303314e-01 -2.5655363825283573e-01  4.3686037098290531e-01 3.8346287599729389e-01 -1.8471452647190795e-01  -1.2853788342706451e-01 6.7437124785420399e-01 -4.3128214862405945e-01  -1.6065538755604861e-01 4.5942748905151687e-01 -7.8487433938590714e-02  6.4172270263136461e-02 4.6190692646790932e-01 -6.9155185496994939e-02  -9.2516026076355590e-02 6.5614164786929363e-01 -1.8668675404748208e-01  -4.2724460650464641e-01 5.8728277436869825e-01 -1.9199838919791787e-01  -3.1769439783035719e-01 7.0729338032125078e-01 -2.8564927500579496e-01  -4.9600038134666291e-01 5.1165515557874852e-01 -4.2090710006646875e-01  3.7284107777869091e-01 5.8678828209067369e-01 -4.2694352356230325e-01  -6.5188674986735773e-01 5.0630023132079238e-01 -2.5698734042686705e-01  -6.8806353645068585e-01 2.0839272544486440e-01 -4.3338892334934853e-01  8.9673955017289558e-02 6.9715747186815935e-01 -3.1395156092541265e-01  -6.2064407183851256e-01 5.0619339341075453e-01 -3.2579452932336450e-01  -7.8498567404996678e-01 1.6364266791948442e-01 -3.3501199413567057e-01  -3.9857464153190947e-01 3.4776861759749933e-01 -8.8117375562197203e-02  -5.1086633524365188e-01 1.2280681826663560e-01 -7.2900240706596467e-02  -6.6883199546381600e-01 3.2467543066407262e-01 -1.7267667123682742e-01  -8.0029738217092278e-02 7.2886146755157200e-01 -3.6581741573100507e-01  2.1536830262778456e-01 5.7542211789274189e-01 -1.7421941239768068e-01  2.9771531030835158e-01 3.4823543870597645e-01 -6.2504489815329550e-02  3.6102243425276770e-01 5.4918176036344446e-01 -3.0738671856167171e-01  2.5420086440874734e-01 5.4026941528031591e-01 -4.8461469171294730e-01  -6.6585034661322307e-01 1.0752743277794996e-02 -1.4048710909906181e-01  -3.6296239332767760e-01 6.7001451048538774e-01 -3.5012040501896952e-01  5.3827976532672217e-01 3.7277922021511650e-01 -3.3637001842235903e-01  2.4296397501280981e-01 1.3460470091859944e-01 -3.1214652612615402e-02  3.9137137305996939e-01 2.5115543745405250e-01 -5.9949602396781446e-02  1.8577124505765447e-01 2.1418225034948346e-01 -3.4642558236735552e-02  4.0761047447098081e-01 4.4220405137033170e-01 -4.9914707201472069e-01  3.0802913344571714e-01 4.4783619407963154e-01 -5.3535082931102318e-01  1.4165811745089402e-01 5.5097811655307827e-01 -5.0317780076909746e-01  -6.2538054822685984e-01 2.1605686269483296e-01 -4.9599222490596967e-01  -6.1924521086260587e-01 2.6988255207077080e-02 -5.1678709420014624e-01  -6.8006473091667619e-01 -9.1958807181703583e-03 -4.4685630907782720e-01  -5.2626163031066509e-01 -8.1558253628175601e-04 -6.8450166989208666e-02  -3.0558079880033695e-01 3.1250091935160401e-02 -3.7460926765439995e-02  -2.8871471427027012e-01 1.0207328600241981e-01 -3.9059753408874513e-02  4.7076322026288764e-01 2.6935802962024552e-01 -1.1372788338510072e-01  5.0928607304403506e-01 2.8187687620170265e-01 -2.0953093950217405e-01  3.8522739297343800e-01 3.8331253055697923e-01 -1.0797809087926612e-01  5.6291907040714617e-01 2.7345251309628299e-01 -2.9424694094897630e-01  6.0218478654054464e-01 3.3787943000083087e-01 -3.9483407858919539e-01  4.7538185392442267e-01 3.8217351613257577e-01 -2.5928261982453787e-01  5.3737002978993187e-01 4.4988624356038170e-01 -4.3791416882702605e-01  4.6596919028208383e-01 4.6018308841198147e-01 -4.6443226531554516e-01  4.9799047820104309e-01 4.9464732369214837e-01 -4.1040919151359667e-01  3.1405335135093532e-01 5.6957945570630564e-01 -4.4930654700420181e-01  -5.3444849913285748e-02 6.2315874979950903e-01 -4.7466443292903931e-01  -2.3810117508111298e-01 6.1061344422953578e-01 -4.7004678184293042e-01  6.6670377823864022e-02 6.3447276604612168e-01 -4.6203599341693979e-01  -4.1851669794771212e-01 5.1941089707313803e-01 -4.7110808552572653e-01  -5.4833944590212302e-01 3.8064629277882600e-01 -4.8188396946349826e-01  -3.2587906500665287e-01 6.2172543437227057e-01 -4.2643576291190716e-01  -6.2029706530334294e-01 3.7228281313906098e-01 -4.2553544415516692e-01  -6.4045578186189789e-01 -1.2285619836595535e-01 -1.7209536699158234e-01  -5.8782032537823081e-01 -7.0544557854101034e-02 -9.5075552991757309e-02  -6.1273477474662708e-01 7.9732886251064145e-02 -1.0341140431864577e-01  -7.2045933650187421e-01 -9.3123877593037557e-02 -3.3367118805535428e-01  -6.8666977244790506e-01 -8.8547401336051490e-02 -2.4448733386743679e-01  -7.2381106106743776e-01 6.2930200667538100e-02 -1.9911219059379670e-01  -7.3517718960196110e-01 -3.0765901936596066e-02 -3.9412117885021697e-01  -7.4369340341418366e-01 -7.1279017473094217e-02 -3.6932834838788303e-01  -7.7879387052844551e-01 1.3888092430841811e-01 -3.0313688034767861e-01  -7.4954298863056490e-01 1.9146179354487602e-01 -3.7259203246954831e-01  -2.4809787586294713e-01 1.7307160346341283e-01 -4.6762516204083032e-02  -1.9455657480206467e-01 2.3682701492124852e-01 -5.1678432037243219e-02  -4.6960127648765121e-01 2.3913800746171299e-01 -8.3513993417238044e-02  -1.1950675141612245e-01 2.6797029095484204e-01 -4.9923428244423647e-02  -4.9793839865680672e-02 2.8385618693814596e-01 -4.5687260806354352e-02  -2.8250823375659440e-01 4.2023222650593278e-01 -8.7195073761349676e-02  2.5143356112335029e-02 2.8715866147352642e-01 -4.2576108765164017e-02  1.0361059610441323e-01 2.5307391840612004e-01 -3.4317485197335781e-02  -5.1442148447135974e-02 4.6839170053573015e-01 -6.9477616779830970e-02  1.8221296282563226e-01 4.1707450564253190e-01 -6.3787412907436392e-02  -7.4551776334969710e-01 3.1844542283182814e-01 -2.5208126129114000e-01  -7.4634863562549980e-01 3.5204017638895307e-01 -2.8771211681454423e-01  -6.7759776580628195e-01 4.2722670192516982e-01 -2.1726973743262074e-01  -7.3479842481861046e-01 2.3218761410293698e-01 -2.0807966362788066e-01  -6.9164519412836278e-01 1.6850849498367382e-01 -1.5654798904740527e-01  3.3821149397088135e-01 4.8792498614423224e-01 -1.7703732062651342e-01  2.7564729625573631e-01 4.7942913127441072e-01 -1.0644659426067313e-01  2.8061864806808906e-01 5.6567224474459055e-01 -2.3463106795272162e-01  3.9816599303919964e-01 4.6905879493691577e-01 -2.4790430497435625e-01  4.5657580505698014e-01 4.7086591712755521e-01 -3.2732879241021401e-01  -2.4515232437898879e-01 6.8427381728032710e-01 -3.9013846293737164e-01  -4.3749629291896891e-01 6.0322772468854891e-01 -3.7943103746306456e-01  1.2787319772190711e-01 6.6905802931368408e-01 -4.2669580598755763e-01  1.5741390859980764e-01 6.9401128822537739e-01 -4.0034405605290074e-01  -9.9554204187539810e-02 7.0993306746579854e-01 -3.9724051153389422e-01  -2.2495662935959607e-01 7.1246412318187657e-01 -3.5707317192834653e-01  -1.4261544107999383e-01 5.7531375905742288e-01 -1.2234141724196093e-01  -5.4192143539017173e-03 5.7782710111290592e-01 -1.1960965378060705e-01  -2.9930731716449266e-01 5.4298919920299538e-01 -1.3010751365885120e-01  -2.6161396347522131e-01 6.4166820577618688e-01 -1.9043724755847888e-01  -4.3765711493460269e-01 4.7638229394893611e-01 -1.3746265028930840e-01  6.8097134788892399e-02 6.3386669466715950e-01 -1.7715839418316726e-01  1.4562616522111613e-01 5.4520559413702319e-01 -1.1499512454711355e-01  -3.8755561538822325e-01 6.6614796305971935e-01 -2.4386777163538639e-01  -2.0570089096851482e-01 7.0642067077284398e-01 -2.5026364589636874e-01  -1.0982965314403978e-01 7.2625459170826445e-01 -3.0413692375709506e-01  -8.7873774834917057e-03 6.9256940050551918e-01 -2.4511790631575289e-01  1.5441453365726987e-01 6.4439912181418801e-01 -2.4857063253370601e-01  -5.5215455323370666e-01 5.7274194739905993e-01 -2.2878121471628377e-01  -5.0262681194563130e-01 6.3096428392218251e-01 -2.6841233129113190e-01  -5.7198962516154650e-01 4.7545217434610026e-01 -1.8273364358911176e-01  -5.5130030199751590e-01 3.5590998971413923e-01 -1.3000446826091178e-01  -6.4229857557277303e-01 5.1305590103188581e-01 -2.8931605371439911e-01  -4.8414637211898759e-01 6.3401203495782643e-01 -3.0018124849767264e-01  -2.0682990226693115e-01 7.2314038170216255e-01 -3.2738842840226656e-01  1.3695255574766628e-02 7.2435668757419625e-01 -3.4694818007848049e-01  -5.0166662817689966e-01 6.0180303384070988e-01 -3.3244107227814884e-01  -3.4493051990205814e-01 6.9482595021117677e-01 -3.1834197272052034e-01  -5.6159846007636882e-01 5.1665661718634071e-01 -3.6930057513027004e-01  -6.7893194182970529e-01 3.7079193017400036e-01 -3.7276280663819267e-01  2.3681648933489721e-01 6.7387358476879211e-01 -3.8383626916548808e-01  3.8731804434509681e-01 5.8829544786500576e-01 -3.9492874435442904e-01  2.3648320576624549e-01 6.3718243146665188e-01 -3.1418253899074206e-01  -7.3573454163590579e-01 3.5000382083687831e-01 -3.1969082739571303e-01  -6.1543482245286252e-01 2.2260657081484966e-01 -1.2206588115922615e-01  6.0428907312504151e-02 -4.3571195124210305e-01 -2.5448653259318732e-01  -2.9113337528299704e-01 3.5180239196409925e-02 -1.5612481973852860e-02  -3.0477090532798096e-01 -3.9275456198885322e-01 -4.3607654011697261e-01  -2.8547241011859209e-01 -7.4683491068689087e-02 -3.4986784032751406e-02  -1.0825791724394938e-01 -2.3272954487721942e-01 -5.8933871679989258e-02  -5.1266262779762206e-01 -2.0467155426929989e-01 -4.2042040258645075e-01  -5.8082224905230317e-01 5.4636786942590124e-02 -3.8896753336829337e-01  -2.1115993475334605e-01 3.0388971222003702e-01 -6.4499061981155209e-02  -5.0524099812102208e-01 -2.3928649872045629e-01 -3.5223364065406843e-01  -4.1632810510098767e-01 3.9332539212255591e-01 -3.1314338314253032e-01  -2.6517998887337418e-01 -4.2841419682451887e-01 -3.6488734576576970e-01  -3.7193975248975175e-01 -3.2195166692597588e-01 -2.3938828505551032e-01  -1.7095300917561707e-01 -4.1100502532688438e-01 -2.4623736470309429e-01  -2.5528600138840796e-01 -3.1602828435738434e-01 -1.6851389095871505e-01  -4.6409645010260320e-01 -4.7077869995475703e-02 -1.3133012565034641e-01  -4.5966019131689190e-01 1.3291641802077253e-01 -1.2004443263241037e-01  -7.1311286067883506e-02 -4.7230446776803281e-01 -3.5957829595070540e-01  -5.6649836519735886e-01 -8.8962954830530748e-04 -2.4530349594563816e-01  -5.5558925724393604e-01 1.8263884927029722e-01 -2.5849682881205521e-01  4.5763771153150737e-02 -3.4604540487845997e-01 -1.5764718492970900e-01  -3.6997625470586787e-01 2.7802285461296805e-01 -1.1186759380933618e-01  -2.2459006646387147e-01 -1.8966827050790738e-01 -6.5902825903728202e-02  -1.2215192320564588e-01 -4.2904043001932085e-01 -4.4599624201404475e-01  -3.2747177122869196e-02 -3.8741588043273600e-01 -1.9909165024890271e-01  -2.5713174643933961e-01 1.4365093234105331e-01 -1.5348213472005200e-02  -3.0762138268707634e-01 4.1994726527793297e-01 -1.9528323163648886e-01  7.7107867797307827e-02 -4.7717529093065386e-01 -3.4573503089801544e-01  1.5622149280781780e-02 -4.6822010876178954e-01 -4.7894904723112136e-01  -4.7644106025734995e-01 3.2769847569285554e-01 -3.8015779956559032e-01  -1.7043719281086805e-01 1.7470520338354997e-01 -1.20726872