<?xml version="1.0"?>
<VTKFile type="UnstructuredGrid"  version="0.1"  >
<UnstructuredGrid>
<Piece  NumberOfPoints="1268" NumberOfCells="4847">
<Points>
<DataArray  type="Float64"  NumberOfComponents="3"  format="ascii">1.994716987487452 0.01317707561264319 -1.202466945460223e-11  1.374072606111497 -0.08614134488653273 -5.388997575085332  -1.285941478930618 0.1916557790035214 -5.691288663606836  -1.59032616235459 -0.4515196446136259 1.626303258728257e-17  0.4950030257755884 2.521650519233041 -5.495391852657774  -0.4107718940653654 -2.429115409112172 -5.58531208084276  -0.9314707163843408 -3.006923447963563 4.87890977618477e-17  1.161824811771535 2.948440156756841 -3.391384395534658e-14  2.146749234505421 0.002696741478414759 -0.5615078450779066  2.330988047973839 -0.000873250973709995 -1.113141311680313  2.540713632977715 -0.1384292375506191 -1.637427654548237  2.645241452520652 -0.2872312815961211 -2.18637082393926  2.504842461151312 -0.2752146673621067 -2.746850782899552  2.287876352721185 -0.2088259978706829 -3.283011632728322  2.137771360922677 -0.2093380261300688 -3.844996501809416  1.970142554575494 -0.2193701374385486 -4.401638277082749  1.701580801829277 -0.1696632515169769 -4.915066532844666  1.398049690886424 0.4419377546899956 -5.387643705321969  1.183972204621215 0.9208338616597355 -5.413149504812257  0.7621482426349403 1.234356207118232 -5.461782499987256  0.2539805730796886 1.370727420898931 -5.519751404145364  -0.2689415860383004 1.319053689498898 -5.578906487138381  -0.7357170559581984 1.076180709179107 -5.631191713357971  -1.086003096318238 0.6812820615514149 -5.669884670156524  -1.65706961757681 -0.5275128747266272 -0.6240725009925172  -1.829082870387909 -0.8347372240299333 -1.153553189134448  -2.030635262011336 -1.097965926806997 -1.693320688638939  -2.148557703924963 -0.9683820133813712 -2.295450526931833  -2.119047321408695 -0.7521727279271558 -2.890676896601294  -1.972500555455803 -0.7106310836492745 -3.509380855831461  -1.885028119342598 -0.4902108162504233 -4.093718100793141  -1.832050776792238 -0.1313823297003599 -4.617858136599065  -1.636180550340053 0.1151199882480144 -5.165527944859976  -1.540434086810702 0.1014447694855235 -7.644826989049428e-17  -1.339902801239663 0.6191128040412099 2.218327606354497e-17  -0.9949589579071262 1.053322092476122 2.12059320661159e-17  -0.5243975458638882 1.346285776146202 7.754217898549941e-16  0.01399251627036286 1.481823287560149 3.252316763596149e-17  0.5696211504784076 1.47677978548424 -7.207855520904863e-17  1.105448032340458 1.331487337928338 1.951563910473908e-16  1.561367740818086 1.018090979386763 -2.179459114756194e-16  1.860006992193919 0.551530302300456 1.369433074745588e-16  -0.152869286718376 2.506583809965366 -5.568804938302105  -0.7781210310064858 2.335338381675429 -5.639249366957451  -1.340550096787874 2.011723800088065 -5.702178028336585  -1.803922993566052 1.555830170950866 -5.753534898075912  -2.144678763029901 1.000979069722826 -5.790734833138769  -2.346903237737564 0.3811866585909049 -5.812061421922149  -2.406990243842066 -0.2684488461825228 -5.817196438260218  -2.318433628103212 -0.9144163570965761 -5.805488779558074  -2.059391262210163 -1.511004864267824 -5.774580158166454  -1.615755841275718 -1.983465489741105 -5.72306417450185  -1.043145925381342 -2.287058241276404 -5.657361969815248  -0.6986882361605687 -2.420627649803484 -5.024556445072709  -0.8272574030199392 -2.685291244074475 -4.476216325063944  -0.8113210073272845 -3.118860027310894 -4.01596683617901  -0.7618552434953355 -3.481598098596065 -3.504026669625047  -0.7509882165597778 -3.609083979854663 -2.886473298216772  -0.7986167670519319 -3.732483084086931 -2.268445488219849  -0.8276969497603353 -3.810997815301134 -1.64593496945388  -0.7425506523451623 -3.557242155569485 -1.078322423839125  -0.7147449622328144 -3.21189056194362 -0.5511080601316157  -1.482234509376526 -2.778582553401298 -5.854479658363816e-16  -1.970737176894139 -2.437284655419533 2.764697292186607e-16  -2.362818572203899 -1.988727212877528 2.439101268600111e-16  -2.642390785384022 -1.462244173776716 5.051059276813266e-16  -2.812149102113852 -0.89052423419162 2.276851973687203e-16  -2.877946727920729 -0.2976446157883296 -1.219909928720168e-16  -2.842947107925845 0.2978601752284433 4.065446096494693e-17  -2.70313036896374 0.8776122116387211 -5.041496169361013e-16  -2.452324348076021 1.418519584933707 4.379274460317988e-16  -2.098265626135573 1.898294456130726 1.951060033519619e-16  -1.658391347368763 2.301023318502569 -1.789574489620802e-16  -1.154148079923361 2.619757341302747 -2.081203863085907e-15  -0.6042202207747882 2.851073703499478 -3.577841418755692e-16  -0.02416138323675775 2.990516581461941 4.065982498622179e-16  0.5710641261211448 3.028216945076794 -1.46882551317968e-16  0.6414151130412097 2.696325287154043 -4.983333021490838  0.771852374565919 2.778456367279237 -4.445188759107248  0.8805845204306011 2.73078881179073 -3.897720120696569  0.9481597620953167 2.69798349057175 -3.343104559074628  0.9815370707090804 2.778214865778854 -2.789250505759619  1.013475345489448 2.861817704396183 -2.235671116027784  1.055849759321274 2.898356228459238 -1.677594140621302  1.093646323460014 2.92793989028903 -1.118725590781912  1.124098871622056 2.957526991478201 -0.5594169689370629  0.2477015793419729 -2.415655802610486 -5.510682951113449  0.8844491790088972 -2.245867158009595 -5.438931443942415  1.464891069119211 -1.932330028996181 -5.373934600293736  1.955087092649627 -1.489613175355717 -5.319502697776375  2.318355026965356 -0.937054784961175 -5.279744576064058  2.524994411863564 -0.307899182343253 -5.257941630215678  2.574632820450045 0.3531084349228537 -5.254020561031156  2.465743861849647 1.006614152640354 -5.268052816559671  2.183897076015212 1.604484044160622 -5.301550147358176  1.722560240631265 2.07491696755195 -5.35506775502591  1.13806318635062 2.378906583716481 -5.422118662603529  1.742182153284979 2.73179858498085 5.854691697147836e-16  2.262480931380501 2.395264875892136 -2.601681534737615e-16  2.698000706832733 1.954727370266727 -3.903113804560263e-16  3.021530388777258 1.426473918441798 1.707421408502106e-16  3.223363606607101 0.8405687193648443 -2.844806418042028e-16  3.305434793487241 0.2261994274297442 -4.472186606099012e-16  3.269241566985055 -0.3926051469820059 3.171555149681837e-16  3.113478077610213 -0.9924495549400153 3.510830505762065e-16  2.840400132149515 -1.548806515270482 -1.707368614952523e-16  2.466120284856568 -2.042983582774378 9.732831365154574e-17  2.008125599488538 -2.460814027017948 -3.577575055983979e-16  1.482521285196868 -2.789563899556613 -4.886146623064541e-17  0.9057866143556688 -3.01678997208197 -2.439392613813594e-16  0.2964958724913082 -3.130681163554852 3.414395345104792e-16  -0.32338307292875 -3.126978161260848 2.926910878106614e-16  -1.29067345658392 -0.3506098753383553 -5.690421630247788  -1.068897680254163 -0.8451623229646739 -5.663999894259847  -0.6782440885714781 -1.219621806060448 -5.6187489875115  -0.168757542531344 -1.390394566692369 -5.560546895724229  0.3611301401510615 -1.294122251639114 -5.500717901478111  0.8191548613516448 -1.005201308695582 -5.449538098373106  1.16817203978903 -0.5892762115769014 -5.411042670828763  1.960898302630318 -0.551652302616722 -8.131516293641286e-17  1.751009740180289 -1.077278642631261 7.445724005953314e-16  1.394016468000002 -1.516729095803803 1.136104663605282e-15  0.9227767039454898 -1.830301465573364 3.434443593283319e-16  0.3780412068884804 -1.984007749105097 8.617772484356591e-16  -0.1885780664025548 -1.977994130030172 2.357202029695971e-16  -0.7327557451871473 -1.821291124380143 1.942410916395698e-17  -1.191068596016128 -1.491774666596192 2.975009434367945e-16  -1.480405544894888 -1.006855825633415 6.954512630084263e-16  -1.812414118534285 0.2561131097252937 -2.664867827914479  2.421751940242729 0.6298287624476981 -1.933377861698098  0.7556418177061754 1.42269463362527 -4.617654324361507  0.003134751711410342 1.574821943356493 -0.9318675177876981  1.015098001669947 1.51699057942374 -0.9441494884276413  0.6193243625380082 1.764115149411371 -1.862230514405671  -0.4757031201037318 1.549728101933577 -1.958273018773558  0.1126459993007786 1.698838152590054 -2.957602797129454  -0.3405660022430232 1.569615851499001 -4.678135257405353  1.818199099779932 0.7365610114574719 -3.763003518505052  -0.9541815370276669 1.23451227632913 -2.875526912859068  -1.269464226480212 1.016489154450913 -4.672047638709048  1.301562892980348 1.557566760682666 -2.802482532053872  -0.7813756340336595 1.414221906310649 -3.725761628685261  -1.58370798409762 0.5643609111372817 -3.581008460136619  -0.988817348255397 1.158392548936659 -1.014254585170146  -1.607700527190565 0.2800106654898483 -1.030081240453645  -1.388203055800784 0.7951310659851955 -1.943712885648593  0.8261955720421881 1.570157055202129 -3.620947225245673  1.681455131778566 1.410849015379531 -1.876189895849114  1.878739160554727 0.943024132521903 -0.9866418074548234  2.103426639579445 1.000735947836943 -2.593434794762663  1.62623803052506 0.6468498306152269 -4.727220189271843  -1.882943490361709 -0.1546739965127431 -1.761716647663214  0.05868355051519467 1.656538949473053 -3.863342338366238  2.465845305360337 0.2632819454094029 -2.663569745038379  1.994842599423799 0.5019775153043848 -0.4779055074204815  2.1671824130763 0.4980244878585698 -1.027636182799239  1.710213566460811 0.9718796190568162 -0.4957578884333736  1.845584590132108 0.2253887364997403 -4.583879812097906  1.579035044615276 0.2924902970866011 -5.101748935835201  1.409777182251665 0.7868327264427526 -5.07202467441607  -1.039178737375989 1.089168173550246 -5.170746090958521  -1.377687418630729 0.6683636420802941 -5.233117919580046  -1.641402128985454 0.4875654733502939 -4.648722230221863  -1.765467255797776 -0.2695484060062747 -1.079683539430899  -1.617858736076732 -0.08318463488274264 -0.5123563299218489  -1.474019211051276 0.4496529111656123 -0.5150171376928306  2.417677350191343 0.3274903893149403 -1.506992657970159 
[...]
<PointData  Vectors="displacement"> 
<DataArray  type="Float64"  Name="displacement"  NumberOfComponents="3" format="ascii">0.0000000000000000e+00 0.0000000000000000e+00 0.0000000000000000e+00  3.7040436407718863e-01 3.0941414162104169e-01 -5.3821054674943558e-01  -4.7769968175138539e-01 -1.3354489527221405e-01 -5.3761269764461783e-01  0.0000000000000000e+00 0.0000000000000000e+00 0.0000000000000000e+00  -4.4535785451007370e-01 3.3875710226835110e-01 -3.8541514583152842e-01  3.0519868505274061e-01 -2.6437377950687696e-01 -5.6505940900288232e-01  0.0000000000000000e+00 0.0000000000000000e+00 0.0000000000000000e+00  0.0000000000000000e+00 0.0000000000000000e+00 0.0000000000000000e+00  2.8516559405291991e-01 6.4243712122027327e-02 -2.7414663754146848e-02  4.4008584706901976e-01 1.3216218294661944e-01 -6.2227684615496798e-02  5.1059558086398060e-01 1.5197675153792220e-01 -1.2938029052616520e-01  5.5061813188289555e-01 1.6868100959766358e-01 -2.2754576415645095e-01  6.0156256354066551e-01 2.1779185221317440e-01 -3.3993442262267637e-01  6.1790653502035553e-01 2.7273790295977246e-01 -4.1087128408224993e-01  5.7917321709451708e-01 2.9524885885666802e-01 -4.4364372129578133e-01  5.1012197946124371e-01 3.0191027698602457e-01 -4.7513367679192398e-01  4.4125938775489121e-01 3.1148256860364942e-01 -5.1194169610920315e-01  1.9303017593640914e-01 4.5269954159206299e-01 -5.0160283138378969e-01  3.9380139382812042e-03 5.2224054732633285e-01 -4.8217672265160555e-01  -1.7361057375095354e-01 5.3584345800112132e-01 -4.6571784965760904e-01  -3.3083985545662453e-01 4.7601955185399136e-01 -4.7881194575145397e-01  -4.5507026982771687e-01 3.6548154119559922e-01 -4.9057869654671571e-01  -5.2590298383998890e-01 2.1603798372564229e-01 -5.0981809636244724e-01  -5.3984652345152562e-01 4.3792643512370076e-02 -5.2585192659550728e-01  -3.3391507705112417e-01 -3.2757952187873175e-02 -3.4601200876966796e-02  -4.6581739966087382e-01 -1.2807316620061529e-01 -5.0591915922825491e-02  -4.8535883497794935e-01 -2.2663165733376092e-01 -1.1417070569245165e-01  -5.3290186761986669e-01 -2.4262601841976017e-01 -2.1391598747147184e-01  -5.7788489154558631e-01 -2.4255334390954617e-01 -3.0429698073540851e-01  -5.7667629713321789e-01 -2.8291471252351913e-01 -3.7522323660370460e-01  -5.6654728094955575e-01 -2.7515544417286097e-01 -4.0642979428630116e-01  -5.5422925915648014e-01 -2.1830208302420845e-01 -4.3214532318337973e-01  -5.2257958807264859e-01 -1.7521629510441414e-01 -4.8581475482694625e-01  0.0000000000000000e+00 0.0000000000000000e+00 0.0000000000000000e+00  0.0000000000000000e+00 0.0000000000000000e+00 0.0000000000000000e+00  0.0000000000000000e+00 0.0000000000000000e+00 0.0000000000000000e+00  0.0000000000000000e+00 0.0000000000000000e+00 0.0000000000000000e+00  0.0000000000000000e+00 0.0000000000000000e+00 0.0000000000000000e+00  0.0000000000000000e+00 0.0000000000000000e+00 0.0000000000000000e+00  0.0000000000000000e+00 0.0000000000000000e+00 0.0000000000000000e+00  0.0000000000000000e+00 0.0000000000000000e+00 0.0000000000000000e+00  0.0000000000000000e+00 0.0000000000000000e+00 0.0000000000000000e+00  -4.9854405243534439e-01 2.4409163497763031e-01 -3.9240299170619636e-01  -5.2943035914787240e-01 1.3603883686702944e-01 -3.9833349314657396e-01  -5.3093645040402271e-01 2.5845429961553808e-02 -4.1053529532582633e-01  -4.9706849315043794e-01 -8.5174946211763927e-02 -4.1747632848559202e-01  -4.3957364781378794e-01 -1.9748050507930301e-01 -4.2554740459181728e-01  -3.4592293083864317e-01 -2.9399526268446252e-01 -4.3669648868562161e-01  -2.3148501908005656e-01 -3.6045960822741596e-01 -4.4203144796106847e-01  -1.0339369659014598e-01 -3.9409715081600205e-01 -4.4881435239345363e-01  3.1684770016253257e-02 -3.9628269894971718e-01 -4.7090590747765831e-01  1.1431482623465181e-01 -3.6884953252181651e-01 -4.9226519158099291e-01  2.0668073625259228e-01 -3.2017016855388286e-01 -5.2234353508148534e-01  2.3204312807261757e-01 -4.1753845592466932e-01 -5.2657739206830967e-01  2.0341119669674665e-01 -4.8325157118744200e-01 -4.6071156513394701e-01  2.1080461611152920e-01 -4.7099569829275900e-01 -3.7114868812037177e-01  2.0926615104535293e-01 -4.3957208030463674e-01 -3.0456946361653664e-01  1.9384416945268376e-01 -4.2228455129534409e-01 -2.5440568786794154e-01  1.5815288515352302e-01 -3.7507559500875726e-01 -1.8223228820037715e-01  1.4185996451824778e-01 -3.1239936660361523e-01 -1.3337923055918466e-01  1.0346884285466004e-01 -2.7077529937159217e-01 -8.7666072329581485e-02  5.1528875307303948e-02 -1.7533433591746708e-01 -2.1333734338851079e-02  0.0000000000000000e+00 0.0000000000000000e+00 0.0000000000000000e+00  0.0000000000000000e+00 0.0000000000000000e+00 0.0000000000000000e+00  0.0000000000000000e+00 0.0000000000000000e+00 0.0000000000000000e+00  0.0000000000000000e+00 0.0000000000000000e+00 0.0000000000000000e+00  0.0000000000000000e+00 0.0000000000000000e+00 0.0000000000000000e+00  0.0000000000000000e+00 0.0000000000000000e+00 0.0000000000000000e+00  0.0000000000000000e+00 0.0000000000000000e+00 0.0000000000000000e+00  0.0000000000000000e+00 0.0000000000000000e+00 0.0000000000000000e+00  0.0000000000000000e+00 0.0000000000000000e+00 0.0000000000000000e+00  0.0000000000000000e+00 0.0000000000000000e+00 0.0000000000000000e+00  0.0000000000000000e+00 0.0000000000000000e+00 0.0000000000000000e+00  0.0000000000000000e+00 0.0000000000000000e+00 0.0000000000000000e+00  0.0000000000000000e+00 0.0000000000000000e+00 0.0000000000000000e+00  0.0000000000000000e+00 0.0000000000000000e+00 0.0000000000000000e+00  0.0000000000000000e+00 0.0000000000000000e+00 0.0000000000000000e+00  -4.1672419979461039e-01 3.7759902531501444e-01 -3.6466015132618612e-01  -3.6926788904457897e-01 4.1601497152582079e-01 -3.4259559225471065e-01  -2.9774905461189477e-01 4.5170251277730766e-01 -3.1024895196400465e-01  -2.2344664303827927e-01 4.6926621796354928e-01 -2.5764217082907781e-01  -1.7855102784093402e-01 4.4956185417460648e-01 -1.9596775059637592e-01  -1.3952649582970497e-01 4.0111949902288502e-01 -1.3027092191585718e-01  -1.0606541612816467e-01 3.3047637075152547e-01 -6.8011950698357415e-02  -7.9456178493132787e-02 2.2665949010985528e-01 -7.8378480957318371e-03  -4.2173028351206572e-02 1.1324736307038512e-01 2.9888977855936080e-02  3.9473465815160880e-01 -1.8252042904854782e-01 -5.8957748321157366e-01  4.6620261984485895e-01 -7.0884136164016592e-02 -5.9036097897258855e-01  4.8796364223812483e-01 7.1724784481690243e-02 -5.7535761507841798e-01  4.6442460171151817e-01 2.2181807334302181e-01 -5.3816808361513868e-01  3.7703403167738064e-01 3.5604921597671435e-01 -4.9870801879165932e-01  2.5540881053557773e-01 4.5786420313687964e-01 -4.6095687536530633e-01  1.1340150231757333e-01 5.2009041052115657e-01 -4.2903131019946456e-01  -3.8995188985306357e-02 5.4975299747625550e-01 -4.1344209686864358e-01  -1.7180152037001667e-01 5.2482115978632105e-01 -3.9439848481458295e-01  -2.8162405385306377e-01 4.8669345140136328e-01 -3.8534284351671599e-01  -3.6481429578353941e-01 4.2117835348792598e-01 -3.7991676162704513e-01  0.0000000000000000e+00 0.0000000000000000e+00 0.0000000000000000e+00  0.0000000000000000e+00 0.0000000000000000e+00 0.0000000000000000e+00  0.0000000000000000e+00 0.0000000000000000e+00 0.0000000000000000e+00  0.0000000000000000e+00 0.0000000000000000e+00 0.0000000000000000e+00  0.0000000000000000e+00 0.0000000000000000e+00 0.0000000000000000e+00  0.0000000000000000e+00 0.0000000000000000e+00 0.0000000000000000e+00  0.0000000000000000e+00 0.0000000000000000e+00 0.0000000000000000e+00  0.0000000000000000e+00 0.0000000000000000e+00 0.0000000000000000e+00  0.0000000000000000e+00 0.0000000000000000e+00 0.0000000000000000e+00  0.0000000000000000e+00 0.0000000000000000e+00 0.0000000000000000e+00  0.0000000000000000e+00 0.0000000000000000e+00 0.0000000000000000e+00  0.0000000000000000e+00 0.0000000000000000e+00 0.0000000000000000e+00  0.0000000000000000e+00 0.0000000000000000e+00 0.0000000000000000e+00  0.0000000000000000e+00 0.0000000000000000e+00 0.0000000000000000e+00  0.0000000000000000e+00 0.0000000000000000e+00 0.0000000000000000e+00  -3.5184073191956733e-01 -2.9348841128833186e-01 -5.4351790559816704e-01  -1.7258595724924886e-01 -4.0526946378584261e-01 -5.5155665238088170e-01  4.2169601338041207e-02 -4.4346474388359591e-01 -5.5541592680403773e-01  2.5042181326628138e-01 -3.9280707966167372e-01 -5.7292909270785397e-01  4.1624362015068900e-01 -2.8368090131489287e-01 -5.8268183471923674e-01  5.0004302506381593e-01 -1.0211834931587233e-01 -5.8461174916682457e-01  4.8147248678933269e-01 1.1618070508457709e-01 -5.6891531200731349e-01  0.0000000000000000e+00 0.0000000000000000e+00 0.0000000000000000e+00  0.0000000000000000e+00 0.0000000000000000e+00 0.0000000000000000e+00  0.0000000000000000e+00 0.0000000000000000e+00 0.0000000000000000e+00  0.0000000000000000e+00 0.0000000000000000e+00 0.0000000000000000e+00  0.0000000000000000e+00 0.0000000000000000e+00 0.0000000000000000e+00  0.0000000000000000e+00 0.0000000000000000e+00 0.0000000000000000e+00  0.0000000000000000e+00 0.0000000000000000e+00 0.0000000000000000e+00  0.0000000000000000e+00 0.0000000000000000e+00 0.0000000000000000e+00  0.0000000000000000e+00 0.0000000000000000e+00 0.0000000000000000e+00  -7.1830393366417045e-01 9.8109966347448854e-02 -2.3965546950213976e-01  4.1381466169450642e-01 3.6525216739730554e-01 -1.7318314323730602e-01  -1.2880758992529984e-01 6.4258900064494595e-01 -3.9590482579835251e-01  -1.5116927805311620e-01 4.3336627204088579e-01 -7.7551496083428137e-02  6.0926141003058314e-02 4.3527706601867144e-01 -6.8237211020101052e-02  -8.9649905959632764e-02 6.2265126676950455e-01 -1.7608431473976205e-01  -4.0752555469587187e-01 5.5700950170279850e-01 -1.8084938882964829e-01  -3.0649876410897736e-01 6.7263598546428360e-01 -2.6483510992661646e-01  -4.7851503465799156e-01 4.8427198245094732e-01 -3.8663193320474404e-01  3.5279221589926568e-01 5.6262213264223337e-01 -3.9589245921647476e-01  -6.2291979595894031e-01 4.8008664718136884e-01 -2.3864201794173445e-01  -6.5884084140720889e-01 1.9297922327934158e-01 -3.9952944842894356e-01  8.1916081046283118e-02 6.6463466138111837e-01 -2.9292627778417279e-01  -5.9520452522001188e-01 4.7934454383333619e-01 -3.0028913807148894e-01  -7.4842023583995276e-01 1.5204391607020332e-01 -3.1028324899663812e-01  -3.7643517100334367e-01 3.2862559280053744e-01 -8.6697960316885994e-02  -4.8239213375714834e-01 1.1673221213306637e-01 -7.2050207277207096e-02  -6.3549835319277836e-01 3.0725733067333177e-01 -1.6313307009127004e-01  -8.1210076682157226e-02 6.9462160729196520e-01 -3.3798138942747891e-01  2.0271250724394857e-01 5.4659686375214189e-01 -1.6363676160233004e-01  2.8136725549625924e-01 3.2748558054476268e-01 -6.1230629694391303e-02  3.4152232222496531e-01 5.2471817023393996e-01 -2.8772094449343177e-01  2.3837778908624738e-01 5.1925829036297588e-01 -4.4669869599318446e-01  -6.3061381236477188e-01 1.0249088962316045e-02 -1.3291900288825143e-01  -3.5101069821032105e-01 6.3677141739110954e-01 -3.2209594386788615e-01  5.1235726573327023e-01 3.5799500603459683e-01 -3.1539586448125451e-01  2.2963073108670495e-01 1.2481596058693716e-01 -3.2259962256126817e-02  3.6977971897299983e-01 2.3569010080490965e-01 -5.8309602325359991e-02  1.7580423972831921e-01 2.0019315390964032e-01 -3.5698609142085669e-02  3.8731148273622301e-01 4.2685452733954393e-01 -4.6186663107704190e-01  2.9141617820498150e-01 4.3182678601349650e-01 -4.9416209736776551e-01  1.3009024047112797e-01 5.2874314366512554e-01 -4.6300128195152063e-01  -6.0015466594242461e-01 2.0036613202098114e-01 -4.5750220691375226e-01  -5.9205985786813586e-01 1.8963948188385794e-02 -4.7759346157284549e-01  -6.4837631441231747e-01 -1.5123682780636987e-02 -4.1331992605105222e-01  -4.9696292220817262e-01 4.0185050691103153e-04 -6.7339299650529233e-02  -2.8818322566799809e-01 3.0944605575363250e-02 -3.8698918730142771e-02  -2.7190431049155245e-01 9.7479377865601166e-02 -4.0404581095164135e-02  4.4583500014774036e-01 2.5520324253286142e-01 -1.0736609568776262e-01  4.8348605518433047e-01 2.6928404172342496e-01 -1.9620630126127236e-01  3.6421223586189988e-01 3.6268770306553266e-01 -1.0239714364391866e-01  5.3610201100596133e-01 2.6257632017284854e-01 -2.7609974975352558e-01  5.7447978730322591e-01 3.2545886078853659e-01 -3.6999504923026766e-01  4.5122035755528722e-01 3.6566965430112969e-01 -2.4286708489040099e-01  5.1194548143147878e-01 4.3273998648366446e-01 -4.0809086840792247e-01  4.4329650542090815e-01 4.4352345078487782e-01 -4.3080100327903742e-01  4.7352722231623229e-01 4.7472591206442044e-01 -3.8342741655319190e-01  2.9598465114559591e-01 5.4684732704077488e-01 -4.1495143161846892e-01  -5.7403366298064758e-02 5.9517621724801617e-01 -4.3559139776073819e-01  -2.3380333449912097e-01 5.8106905028699574e-01 -4.3130831195740471e-01  5.7842368392007383e-02 6.0684765172399902e-01 -4.2476507572031513e-01  -4.0560269879026717e-01 4.9249299251143641e-01 -4.3277873945186002e-01  -5.2852953344643805e-01 3.5844677993442586e-01 -4.4301238756482941e-01  -3.1676898802275238e-01 5.9070147173609711e-01 -3.9170460002371660e-01  -5.9620754490114336e-01 3.5022076415167147e-01 -3.9140074065981290e-01  -6.0627311875885359e-01 -1.1705558091556754e-01 -1.6130953273902862e-01  -5.5581207942669220e-01 -6.6096873768659539e-02 -9.0710230188950330e-02  -5.7968556620685918e-01 7.5859123298438066e-02 -9.9418428723294372e-02  -6.8408655578567867e-01 -9.1894027594007832e-02 -3.1140995601970789e-01  -6.5098344210373627e-01 -8.5542328009803284e-02 -2.2873599941075690e-01  -6.8690563478705602e-01 5.8982583294156746e-02 -1.8681216515340901e-01  -6.9959737167713321e-01 -3.4747580911128728e-02 -3.6476605922598021e-01  -7.0665971652903403e-01 -7.2124137348495695e-02 -3.4344665883570930e-01  -7.4153893042402275e-01 1.2926759677303151e-01 -2.8195790077196586e-01  -7.1601023574544342e-01 1.7757561886252915e-01 -3.4361147930082275e-01  -2.3343327593300101e-01 1.6403194713807276e-01 -4.7528923882050461e-02  -1.8250078621288546e-01 2.2363572276527574e-01 -5.2532795899071678e-02  -4.4344834855244863e-01 2.2636295094175221e-01 -8.2541990432057233e-02  -1.1153776701620953e-01 2.5303454534573089e-01 -5.0633681263259581e-02  -4.5960452145709596e-02 2.6763672385101045e-01 -4.6825769874641904e-02  -2.6655239978844469e-01 3.9675341167853090e-01 -8.5883866439345272e-02  2.4756783699238304e-02 2.6998896094395847e-01 -4.3735749910582010e-02  9.8653537772193170e-02 2.3745028558936063e-01 -3.5504255534653362e-02  -4.8109336204588730e-02 4.4159156601127891e-01 -6.8916397122208095e-02  1.7221683849521055e-01 3.9268994183033157e-01 -6.2779974930710913e-02  -7.1037884336592627e-01 3.0110519902518190e-01 -2.3471426285132213e-01  -7.1264411022092133e-01 3.3249381897621522e-01 -2.6634405411023643e-01  -6.4555067098884089e-01 4.0468424080347126e-01 -2.0309440678712384e-01  -6.9846474315974039e-01 2.1947023839286814e-01 -1.9512774213085973e-01  -6.5611248555847190e-01 1.5941942627873454e-01 -1.4810396988799285e-01  3.1965505519778231e-01 4.6391408688283231e-01 -1.6607483954932603e-01  2.6036781423273375e-01 4.5343838001161652e-01 -1.0115208599538572e-01  2.6439691486303729e-01 5.3881334025208716e-01 -2.1969521431629602e-01  3.7702387184094205e-01 4.4774510352021168e-01 -2.3214539802305684e-01  4.3327105699718277e-01 4.5089987662671699e-01 -3.0692537816090865e-01  -2.3950572014598248e-01 6.5077008590424423e-01 -3.5842351428596581e-01  -4.2238490375021792e-01 5.7263637683034496e-01 -3.4859667391019383e-01  1.1689324187745703e-01 6.3987198791874755e-01 -3.9307110897597858e-01  1.4578777356825173e-01 6.6315101354518413e-01 -3.7042262981045682e-01  -1.0063680400516176e-01 6.7649119882023812e-01 -3.6554038378003639e-01  -2.1964862111297762e-01 6.7805916434850444e-01 -3.2919571950622650e-01  -1.3590341294483135e-01 5.4438611783488944e-01 -1.1684388128281450e-01  -5.8750348851708606e-03 5.4681725362506417e-01 -1.1446868532679051e-01  -2.8439033941930880e-01 5.1374733976149245e-01 -1.2422148005889412e-01  -2.5026505290934770e-01 6.0877232173364670e-01 -1.7931112758280188e-01  -4.1540033111399061e-01 4.5072549526483130e-01 -1.3132459429146215e-01  6.2865719195253827e-02 6.0177499525448708e-01 -1.6671705349685362e-01  1.3720131845403921e-01 5.1564876135865334e-01 -1.0978879628885067e-01  -3.7143931894246218e-01 6.3265170312960506e-01 -2.2769808283814569e-01  -1.9852917547476109e-01 6.7170588335039405e-01 -2.3408592458742625e-01  -1.0851295193031740e-01 6.9149035635736555e-01 -2.8285929371717089e-01  -1.1148009466088240e-02 6.5881615484768530e-01 -2.2937314421053737e-01  1.4416684580784656e-01 6.1356179238311315e-01 -2.3257062540117465e-01  -5.2725476915131331e-01 5.4347758633759280e-01 -2.1394407206898355e-01  -4.8194498005490394e-01 5.9915392710976456e-01 -2.4906908773919234e-01  -5.4430453960135561e-01 4.5037156402338352e-01 -1.7234219058859088e-01  -5.2277257926138054e-01 3.3667970865332858e-01 -1.2461125444141767e-01  -6.1494446606914244e-01 4.8619326858991058e-01 -2.6745056772531289e-01  -4.6534757101666196e-01 6.0227698694374210e-01 -2.7711605862915223e-01  -2.0168596149009471e-01 6.8843795162137345e-01 -3.0304481975702524e-01  8.9315348201494012e-03 6.9072272603728013e-01 -3.2220634611993054e-01  -4.8258873687190934e-01 5.7122820866742419e-01 -3.0577915714994214e-01  -3.3327960359833531e-01 6.6084171516507451e-01 -2.9384225321433871e-01  -5.4003061329162616e-01 4.8923771198852656e-01 -3.3939716722621344e-01  -6.5073903246796971e-01 3.4922832542529225e-01 -3.4327601226675875e-01  2.2219002298659141e-01 6.4385513469899402e-01 -3.5699295601035036e-01  3.6681256283740998e-01 5.6316219317204086e-01 -3.6865302698676716e-01  2.2222555296913982e-01 6.0804032167937661e-01 -2.9366237764011749e-01  -7.0355216577809543e-01 3.2988516889286557e-01 -2.9477195667134537e-01  -5.8312361802119539e-01 2.1068187055599644e-01 -1.1710403250431781e-01  6.7125767811645420e-02 -4.1567703563714364e-01 -2.3540161108656676e-01  -2.7539570000136537e-01 3.0331151803253801e-02 -1.1716270501811571e-02  -2.8644904599222770e-01 -3.8774089428120317e-01 -4.0627031216522097e-01  -2.6898651982557731e-01 -7.3559002437581636e-02 -3.0583635761728265e-02  -9.8218795349481747e-02 -2.2127770361223997e-01 -5.4937232204593997e-02  -4.9083061129912853e-01 -2.0725932002980460e-01 -3.9101297025238557e-01  -5.6026081889215662e-01 4.4124769622559623e-02 -3.6073293339282664e-01  -2.0363813473366987e-01 2.8685664479192774e-01 -5.6379236185285293e-02  -4.8022046321328377e-01 -2.3833111497037493e-01 -3.2789320636449260e-01  -4.0423207288507901e-01 3.7338332949685327e-01 -2.8929560217947331e-01  -2.4539259044901340e-01 -4.1871545900581353e-01 -3.3998411162664294e-01  -3.5073961168635387e-01 -3.1498093130425858e-01 -2.2204890648503639e-01  -1.5500707411156878e-01 -3.9758866121880665e-01 -2.2819961812386277e-01  -2.3778027266862287e-01 -3.0596066424361956e-01 -1.5634253187469099e-01  -4.4161660002924713e-01 -5.0106696160596306e-02 -1.2046308088308286e-01  -4.3897204148842650e-01 1.2264066788538407e-01 -1.0859451795357274e-01  -5.7852048593264760e-02 -4.5741534208147006e-01 -3.3380919693207201e-01  -5.4185083145048907e-01 -7.4761208409016211e-03 -2.2667708941005402e-01  -5.3358349609518785e-01 1.6931174724460454e-01 -2.3871203877755887e-01  5.0959974670921865e-02 -3.2922976793148312e-01 -1.4668543771918277e-01  -3.5449850185821363e-01 2.6212440273886373e-01 -1.0038774270450300e-01  -2.0953442624610974e-01 -1.8237233953260112e-01 -6.0931712884952242e-02  -1.0843368446503625e-01 -4.1750513015331175e-01 -4.1372638862769878e-01  -2.3271947935252214e-02 -3.7105100759850107e-01 -1.8426074027953640e-01  -2.4393482201065886e-01 1.3387155544686152e-01 -1.1261510455032821e-02  -2.9765184592125438e-01 3.9864113716413679e-01 -1.7891221470169250e-01  8.4685666120764516e-02 -4.5823318683725373e-01 -3.2058701523455080e-01  2.5367396709608175e-02 -4.5162291535981358e-01 -4.4544135243682509e-01  -4.6402243814542365e-01 3.1020521114959315e-01 -3.5119541131565540e-01  -1.6248625425444677e-01 1.6352435117911807e-01 2.0431304078