<?xml version="1.0"?>
<VTKFile type="UnstructuredGrid"  version="0.1"  >
<UnstructuredGrid>
<Piece  NumberOfPoints="1268" NumberOfCells="4847">
<Points>
<DataArray  type="Float64"  NumberOfComponents="3"  format="ascii">1.994716987487452 0.01317707561264319 -1.202466945460223e-11  1.374072606111497 -0.08614134488653273 -5.388997575085332  -1.285941478930618 0.1916557790035214 -5.691288663606836  -1.59032616235459 -0.4515196446136259 1.626303258728257e-17  0.4950030257755884 2.521650519233041 -5.495391852657774  -0.4107718940653654 -2.429115409112172 -5.58531208084276  -0.9314707163843408 -3.006923447963563 4.87890977618477e-17  1.161824811771535 2.948440156756841 -3.391384395534658e-14  2.146749234505421 0.002696741478414759 -0.5615078450779066  2.330988047973839 -0.000873250973709995 -1.113141311680313  2.540713632977715 -0.1384292375506191 -1.637427654548237  2.645241452520652 -0.2872312815961211 -2.18637082393926  2.504842461151312 -0.2752146673621067 -2.746850782899552  2.287876352721185 -0.2088259978706829 -3.283011632728322  2.137771360922677 -0.2093380261300688 -3.844996501809416  1.970142554575494 -0.2193701374385486 -4.401638277082749  1.701580801829277 -0.1696632515169769 -4.915066532844666  1.398049690886424 0.4419377546899956 -5.387643705321969  1.183972204621215 0.9208338616597355 -5.413149504812257  0.7621482426349403 1.234356207118232 -5.461782499987256  0.2539805730796886 1.370727420898931 -5.519751404145364  -0.2689415860383004 1.319053689498898 -5.578906487138381  -0.7357170559581984 1.076180709179107 -5.631191713357971  -1.086003096318238 0.6812820615514149 -5.669884670156524  -1.65706961757681 -0.5275128747266272 -0.6240725009925172  -1.829082870387909 -0.8347372240299333 -1.153553189134448  -2.030635262011336 -1.097965926806997 -1.693320688638939  -2.148557703924963 -0.9683820133813712 -2.295450526931833  -2.119047321408695 -0.7521727279271558 -2.890676896601294  -1.972500555455803 -0.7106310836492745 -3.509380855831461  -1.885028119342598 -0.4902108162504233 -4.093718100793141  -1.832050776792238 -0.1313823297003599 -4.617858136599065  -1.636180550340053 0.1151199882480144 -5.165527944859976  -1.540434086810702 0.1014447694855235 -7.644826989049428e-17  -1.339902801239663 0.6191128040412099 2.218327606354497e-17  -0.9949589579071262 1.053322092476122 2.12059320661159e-17  -0.5243975458638882 1.346285776146202 7.754217898549941e-16  0.01399251627036286 1.481823287560149 3.252316763596149e-17  0.5696211504784076 1.47677978548424 -7.207855520904863e-17  1.105448032340458 1.331487337928338 1.951563910473908e-16  1.561367740818086 1.018090979386763 -2.179459114756194e-16  1.860006992193919 0.551530302300456 1.369433074745588e-16  -0.152869286718376 2.506583809965366 -5.568804938302105  -0.7781210310064858 2.335338381675429 -5.639249366957451  -1.340550096787874 2.011723800088065 -5.702178028336585  -1.803922993566052 1.555830170950866 -5.753534898075912  -2.144678763029901 1.000979069722826 -5.790734833138769  -2.346903237737564 0.3811866585909049 -5.812061421922149  -2.406990243842066 -0.2684488461825228 -5.817196438260218  -2.318433628103212 -0.9144163570965761 -5.805488779558074  -2.059391262210163 -1.511004864267824 -5.774580158166454  -1.615755841275718 -1.983465489741105 -5.72306417450185  -1.043145925381342 -2.287058241276404 -5.657361969815248  -0.6986882361605687 -2.420627649803484 -5.024556445072709  -0.8272574030199392 -2.685291244074475 -4.476216325063944  -0.8113210073272845 -3.118860027310894 -4.01596683617901  -0.7618552434953355 -3.481598098596065 -3.504026669625047  -0.7509882165597778 -3.609083979854663 -2.886473298216772  -0.7986167670519319 -3.732483084086931 -2.268445488219849  -0.8276969497603353 -3.810997815301134 -1.64593496945388  -0.7425506523451623 -3.557242155569485 -1.078322423839125  -0.7147449622328144 -3.21189056194362 -0.5511080601316157  -1.482234509376526 -2.778582553401298 -5.854479658363816e-16  -1.970737176894139 -2.437284655419533 2.764697292186607e-16  -2.362818572203899 -1.988727212877528 2.439101268600111e-16  -2.642390785384022 -1.462244173776716 5.051059276813266e-16  -2.812149102113852 -0.89052423419162 2.276851973687203e-16  -2.877946727920729 -0.2976446157883296 -1.219909928720168e-16  -2.842947107925845 0.2978601752284433 4.065446096494693e-17  -2.70313036896374 0.8776122116387211 -5.041496169361013e-16  -2.452324348076021 1.418519584933707 4.379274460317988e-16  -2.098265626135573 1.898294456130726 1.951060033519619e-16  -1.658391347368763 2.301023318502569 -1.789574489620802e-16  -1.154148079923361 2.619757341302747 -2.081203863085907e-15  -0.6042202207747882 2.851073703499478 -3.577841418755692e-16  -0.02416138323675775 2.990516581461941 4.065982498622179e-16  0.5710641261211448 3.028216945076794 -1.46882551317968e-16  0.6414151130412097 2.696325287154043 -4.983333021490838  0.771852374565919 2.778456367279237 -4.445188759107248  0.8805845204306011 2.73078881179073 -3.897720120696569  0.9481597620953167 2.69798349057175 -3.343104559074628  0.9815370707090804 2.778214865778854 -2.789250505759619  1.013475345489448 2.861817704396183 -2.235671116027784  1.055849759321274 2.898356228459238 -1.677594140621302  1.093646323460014 2.92793989028903 -1.118725590781912  1.124098871622056 2.957526991478201 -0.5594169689370629  0.2477015793419729 -2.415655802610486 -5.510682951113449  0.8844491790088972 -2.245867158009595 -5.438931443942415  1.464891069119211 -1.932330028996181 -5.373934600293736  1.955087092649627 -1.489613175355717 -5.319502697776375  2.318355026965356 -0.937054784961175 -5.279744576064058  2.524994411863564 -0.307899182343253 -5.257941630215678  2.574632820450045 0.3531084349228537 -5.254020561031156  2.465743861849647 1.006614152640354 -5.268052816559671  2.183897076015212 1.604484044160622 -5.301550147358176  1.722560240631265 2.07491696755195 -5.35506775502591  1.13806318635062 2.378906583716481 -5.422118662603529  1.742182153284979 2.73179858498085 5.854691697147836e-16  2.262480931380501 2.395264875892136 -2.601681534737615e-16  2.698000706832733 1.954727370266727 -3.903113804560263e-16  3.021530388777258 1.426473918441798 1.707421408502106e-16  3.223363606607101 0.8405687193648443 -2.844806418042028e-16  3.305434793487241 0.2261994274297442 -4.472186606099012e-16  3.269241566985055 -0.3926051469820059 3.171555149681837e-16  3.113478077610213 -0.9924495549400153 3.510830505762065e-16  2.840400132149515 -1.548806515270482 -1.707368614952523e-16  2.466120284856568 -2.042983582774378 9.732831365154574e-17  2.008125599488538 -2.460814027017948 -3.577575055983979e-16  1.482521285196868 -2.789563899556613 -4.886146623064541e-17  0.9057866143556688 -3.01678997208197 -2.439392613813594e-16  0.2964958724913082 -3.130681163554852 3.414395345104792e-16  -0.32338307292875 -3.126978161260848 2.926910878106614e-16  -1.29067345658392 -0.3506098753383553 -5.690421630247788  -1.068897680254163 -0.8451623229646739 -5.663999894259847  -0.6782440885714781 -1.219621806060448 -5.6187489875115  -0.168757542531344 -1.390394566692369 -5.560546895724229  0.3611301401510615 -1.294122251639114 -5.500717901478111  0.8191548613516448 -1.005201308695582 -5.449538098373106  1.16817203978903 -0.5892762115769014 -5.411042670828763  1.960898302630318 -0.551652302616722 -8.131516293641286e-17  1.751009740180289 -1.077278642631261 7.445724005953314e-16  1.394016468000002 -1.516729095803803 1.136104663605282e-15  0.9227767039454898 -1.830301465573364 3.434443593283319e-16  0.3780412068884804 -1.984007749105097 8.617772484356591e-16  -0.1885780664025548 -1.977994130030172 2.357202029695971e-16  -0.7327557451871473 -1.821291124380143 1.942410916395698e-17  -1.191068596016128 -1.491774666596192 2.975009434367945e-16  -1.480405544894888 -1.006855825633415 6.954512630084263e-16  -1.812414118534285 0.2561131097252937 -2.664867827914479  2.421751940242729 0.6298287624476981 -1.933377861698098  0.7556418177061754 1.42269463362527 -4.617654324361507  0.003134751711410342 1.574821943356493 -0.9318675177876981  1.015098001669947 1.51699057942374 -0.9441494884276413  0.6193243625380082 1.764115149411371 -1.862230514405671  -0.4757031201037318 1.549728101933577 -1.958273018773558  0.1126459993007786 1.698838152590054 -2.957602797129454  -0.3405660022430232 1.569615851499001 -4.678135257405353  1.818199099779932 0.7365610114574719 -3.763003518505052  -0.9541815370276669 1.23451227632913 -2.875526912859068  -1.269464226480212 1.016489154450913 -4.672047638709048  1.301562892980348 1.557566760682666 -2.802482532053872  -0.7813756340336595 1.414221906310649 -3.725761628685261  -1.58370798409762 0.5643609111372817 -3.581008460136619  -0.988817348255397 1.158392548936659 -1.014254585170146  -1.607700527190565 0.2800106654898483 -1.030081240453645  -1.388203055800784 0.7951310659851955 -1.943712885648593  0.8261955720421881 1.570157055202129 -3.620947225245673  1.681455131778566 1.410849015379531 -1.876189895849114  1.878739160554727 0.943024132521903 -0.9866418074548234  2.103426639579445 1.000735947836943 -2.593434794762663  1.62623803052506 0.6468498306152269 -4.727220189271843  -1.882943490361709 -0.1546739965127431 -1.761716647663214  0.05868355051519467 1.656538949473053 -3.863342338366238  2.465845305360337 0.2632819454094029 -2.663569745038379  1.994842599423799 0.5019775153043848 -0.4779055074204815  2.1671824130763 0.4980244878585698 -1.027636182799239  1.710213566460811 0.9718796190568162 -0.4957578884333736  1.845584590132108 0.2253887364997403 -4.583879812097906  1.579035044615276 0.2924902970866011 -5.101748935835201  1.409777182251665 0.7868327264427526 -5.07202467441607  -1.039178737375989 1.089168173550246 -5.170746090958521  -1.377687418630729 0.6683636420802941 -5.233117919580046  -1.641402128985454 0.4875654733502939 -4.648722230221863  -1.765467255797776 -0.2695484060062747 -1.079683539430899  -1.617858736076732 -0.08318463488274264 -0.5123563299218489  -1.474019211051276 0.4496529111656123 -0.5150171376928306  2.417677350191343 0.3274903893149403 -1.506992657970159 
[...]
<PointData  Vectors="displacement"> 
<DataArray  type="Float64"  Name="displacement"  NumberOfComponents="3" format="ascii">0.0000000000000000e+00 0.0000000000000000e+00 0.0000000000000000e+00  3.9582237461628883e-01 3.2334811437561201e-01 -6.0017475138810417e-01  -5.1191945660326210e-01 -1.3128520877740862e-01 -5.9951578417292395e-01  0.0000000000000000e+00 0.0000000000000000e+00 0.0000000000000000e+00  -4.5849203917071019e-01 3.6388442857726000e-01 -4.3219480662422111e-01  3.0723840381027312e-01 -2.8162111314701560e-01 -6.1939892587374779e-01  0.0000000000000000e+00 0.0000000000000000e+00 0.0000000000000000e+00  0.0000000000000000e+00 0.0000000000000000e+00 0.0000000000000000e+00  3.0840531901995055e-01 7.3000685123696174e-02 -2.6043008232301063e-02  4.7511760929989932e-01 1.4480558876415880e-01 -6.5345329084839698e-02  5.4913416141432680e-01 1.6306164061390588e-01 -1.4087211743637978e-01  5.8969830589461347e-01 1.7827005056106782e-01 -2.4874739553970682e-01  6.4138080148958532e-01 2.2853427494372297e-01 -3.7102430251905333e-01  6.5774933297382487e-01 2.8550824548789888e-01 -4.5022760606719042e-01  6.1589893706189314e-01 3.0825619647237895e-01 -4.8879564983124352e-01  5.4273263511311076e-01 3.1448464466565579e-01 -5.2643729804950179e-01  4.7007958783692871e-01 3.2446735276642447e-01 -5.6932310460307289e-01  2.1167928737393249e-01 4.7706364682216235e-01 -5.6211821139107365e-01  1.3086567195355251e-02 5.5365583452547473e-01 -5.4169836994911014e-01  -1.7458397946622406e-01 5.7153910809342123e-01 -5.2529447536013485e-01  -3.4241091582012317e-01 5.1093613558686435e-01 -5.3858344845323591e-01  -4.7614953460650422e-01 3.9548211331062133e-01 -5.5066331823939096e-01  -5.5490517655158234e-01 2.3877565931532491e-01 -5.7050334683198267e-01  -5.7292520640921563e-01 5.6924687487042998e-02 -5.8742332778541806e-01  -3.6219921905203650e-01 -3.7972059241913284e-02 -3.2138618227971712e-02  -5.0401964732773485e-01 -1.4017201605853014e-01 -5.2611854128529277e-02  -5.2600079845509751e-01 -2.4431356182661834e-01 -1.2516410285894075e-01  -5.7691840155184193e-01 -2.5900445092089719e-01 -2.3525567839764874e-01  -6.2421491978723243e-01 -2.5567762580990278e-01 -3.3423154591464249e-01  -6.2326190565576134e-01 -2.9592422987513306e-01 -4.1339072571532698e-01  -6.1168120146404414e-01 -2.8532257819898438e-01 -4.4973819522032510e-01  -5.9657396973204424e-01 -2.2278771615587298e-01 -4.7994269511406845e-01  -5.6074903534017684e-01 -1.7558990186943385e-01 -5.4039352552867748e-01  0.0000000000000000e+00 0.0000000000000000e+00 0.0000000000000000e+00  0.0000000000000000e+00 0.0000000000000000e+00 0.0000000000000000e+00  0.0000000000000000e+00 0.0000000000000000e+00 0.0000000000000000e+00  0.0000000000000000e+00 0.0000000000000000e+00 0.0000000000000000e+00  0.0000000000000000e+00 0.0000000000000000e+00 0.0000000000000000e+00  0.0000000000000000e+00 0.0000000000000000e+00 0.0000000000000000e+00  0.0000000000000000e+00 0.0000000000000000e+00 0.0000000000000000e+00  0.0000000000000000e+00 0.0000000000000000e+00 0.0000000000000000e+00  0.0000000000000000e+00 0.0000000000000000e+00 0.0000000000000000e+00  -5.1587759957136070e-01 2.6615008151816788e-01 -4.3975150733126817e-01  -5.5037935445005770e-01 1.5546614723063548e-01 -4.4561109898066192e-01  -5.5400215175104661e-01 4.0468246260693501e-02 -4.5901790913557439e-01  -5.2257401168833817e-01 -7.5540423269724613e-02 -4.6719879963596417e-01  -4.6570594773794161e-01 -1.9290455941384924e-01 -4.7536083624691555e-01  -3.7063883664063196e-01 -2.9497424064437211e-01 -4.8701881911876027e-01  -2.5428833791918182e-01 -3.6630866269967394e-01 -4.9157160582649329e-01  -1.2311869061768298e-01 -4.0372328190473833e-01 -4.9959473447541958e-01  1.6709712521651678e-02 -4.0894206209822553e-01 -5.2220344283825482e-01  1.0365944282679698e-01 -3.8481593105943362e-01 -5.4387273519151291e-01  2.0289475949741076e-01 -3.3747552770211614e-01 -5.7631581841221868e-01  2.3071156287408359e-01 -4.4169673296777351e-01 -5.7730627547500757e-01  2.0083906448973646e-01 -5.1117981577228411e-01 -5.0671207335367607e-01  2.0865275598320318e-01 -5.0001046799428350e-01 -4.1053769360671399e-01  2.0859417755935011e-01 -4.6897923270875264e-01 -3.3895195696585556e-01  1.9335123619908773e-01 -4.5340120940003675e-01 -2.8260717127836121e-01  1.5854102464895978e-01 -4.0497063977498060e-01 -2.0396236936206716e-01  1.4279079472436271e-01 -3.3763266137329717e-01 -1.4794203036736328e-01  1.0239571663891983e-01 -2.9297113203705788e-01 -9.5910110499530896e-02  5.0718942832233230e-02 -1.9145700298246304e-01 -2.3985640952215774e-02  0.0000000000000000e+00 0.0000000000000000e+00 0.0000000000000000e+00  0.0000000000000000e+00 0.0000000000000000e+00 0.0000000000000000e+00  0.0000000000000000e+00 0.0000000000000000e+00 0.0000000000000000e+00  0.0000000000000000e+00 0.0000000000000000e+00 0.0000000000000000e+00  0.0000000000000000e+00 0.0000000000000000e+00 0.0000000000000000e+00  0.0000000000000000e+00 0.0000000000000000e+00 0.0000000000000000e+00  0.0000000000000000e+00 0.0000000000000000e+00 0.0000000000000000e+00  0.0000000000000000e+00 0.0000000000000000e+00 0.0000000000000000e+00  0.0000000000000000e+00 0.0000000000000000e+00 0.0000000000000000e+00  0.0000000000000000e+00 0.0000000000000000e+00 0.0000000000000000e+00  0.0000000000000000e+00 0.0000000000000000e+00 0.0000000000000000e+00  0.0000000000000000e+00 0.0000000000000000e+00 0.0000000000000000e+00  0.0000000000000000e+00 0.0000000000000000e+00 0.0000000000000000e+00  0.0000000000000000e+00 0.0000000000000000e+00 0.0000000000000000e+00  0.0000000000000000e+00 0.0000000000000000e+00 0.0000000000000000e+00  -4.2815847866680123e-01 4.0408496082221562e-01 -4.0763654722587006e-01  -3.7912809074750281e-01 4.4432579250487331e-01 -3.8212961833937015e-01  -3.0527173739553842e-01 4.8217470206901220e-01 -3.4519305933557387e-01  -2.2929990771734088e-01 5.0116171511071717e-01 -2.8816584293978348e-01  -1.8331698337662719e-01 4.8104417980978392e-01 -2.2069616960550276e-01  -1.4387108285170092e-01 4.3079470729799624e-01 -1.4906421557102636e-01  -1.0912554871738876e-01 3.5672250469427913e-01 -8.0672686282642805e-02  -8.1844414922467953e-02 2.4580983760039793e-01 -1.3552315725765153e-02  -4.4370602983963427e-02 1.2407332225131296e-01 2.9878002184541383e-02  4.0280175157754250e-01 -1.9815676742879793e-01 -6.4359932935231334e-01  4.8005896194300507e-01 -8.3329562788965736e-02 -6.4422638143748012e-01  5.0506752871108296e-01 6.4461867227573813e-02 -6.2875104298333850e-01  4.8407105754638219e-01 2.2018753303331765e-01 -5.9011926959950800e-01  3.9630715025315760e-01 3.6065791350160520e-01 -5.4927637050567812e-01  2.7263817816178842e-01 4.6990480264308970e-01 -5.1034107955818941e-01  1.2726018675589443e-01 5.3732924595930853e-01 -4.7755264572192857e-01  -3.0624757566405487e-02 5.7139651350363863e-01 -4.6044939148727504e-01  -1.6930243621145341e-01 5.4854712949075313e-01 -4.4135766938947157e-01  -2.8430350266611826e-01 5.1271470711910938e-01 -4.3112524901384769e-01  -3.7314127814658976e-01 4.4720395679126024e-01 -4.2690804561864631e-01  0.0000000000000000e+00 0.0000000000000000e+00 0.0000000000000000e+00  0.0000000000000000e+00 0.0000000000000000e+00 0.0000000000000000e+00  0.0000000000000000e+00 0.0000000000000000e+00 0.0000000000000000e+00  0.0000000000000000e+00 0.0000000000000000e+00 0.0000000000000000e+00  0.0000000000000000e+00 0.0000000000000000e+00 0.0000000000000000e+00  0.0000000000000000e+00 0.0000000000000000e+00 0.0000000000000000e+00  0.0000000000000000e+00 0.0000000000000000e+00 0.0000000000000000e+00  0.0000000000000000e+00 0.0000000000000000e+00 0.0000000000000000e+00  0.0000000000000000e+00 0.0000000000000000e+00 0.0000000000000000e+00  0.0000000000000000e+00 0.0000000000000000e+00 0.0000000000000000e+00  0.0000000000000000e+00 0.0000000000000000e+00 0.0000000000000000e+00  0.0000000000000000e+00 0.0000000000000000e+00 0.0000000000000000e+00  0.0000000000000000e+00 0.0000000000000000e+00 0.0000000000000000e+00  0.0000000000000000e+00 0.0000000000000000e+00 0.0000000000000000e+00  0.0000000000000000e+00 0.0000000000000000e+00 0.0000000000000000e+00  -3.8205565321922619e-01 -3.0195798986807376e-01 -6.0634286706145413e-01  -1.9474577427393786e-01 -4.2330691844717067e-01 -6.1498744221654844e-01  3.1105040524660132e-02 -4.6669436594945773e-01 -6.1960244134921161e-01  2.5180578381029300e-01 -4.1732958376308238e-01 -6.3729926218825139e-01  4.2908139063540440e-01 -3.0366410148590567e-01 -6.4763004723595741e-01  5.2237248898419231e-01 -1.1369176650851184e-01 -6.5006859158803354e-01  5.0847124123344989e-01 1.1703262239244330e-01 -6.3320130456452628e-01  0.0000000000000000e+00 0.0000000000000000e+00 0.0000000000000000e+00  0.0000000000000000e+00 0.0000000000000000e+00 0.0000000000000000e+00  0.0000000000000000e+00 0.0000000000000000e+00 0.0000000000000000e+00  0.0000000000000000e+00 0.0000000000000000e+00 0.0000000000000000e+00  0.0000000000000000e+00 0.0000000000000000e+00 0.0000000000000000e+00  0.0000000000000000e+00 0.0000000000000000e+00 0.0000000000000000e+00  0.0000000000000000e+00 0.0000000000000000e+00 0.0000000000000000e+00  0.0000000000000000e+00 0.0000000000000000e+00 0.0000000000000000e+00  0.0000000000000000e+00 0.0000000000000000e+00 0.0000000000000000e+00  -7.7035812439635909e-01 1.0809625537692327e-01 -2.6340717154469012e-01  4.4617019683594950e-01 3.9069510550205883e-01 -1.8943513261336362e-01  -1.2821088660729946e-01 6.8714294861571190e-01 -4.4572342566999584e-01  -1.6445214156632637e-01 4.6980644981345010e-01 -7.8817863897482965e-02  6.5454701905265422e-02 4.7251196447407340e-01 -6.9486563673172103e-02  -9.3598692202243219e-02 6.6953154470355958e-01 -1.9102501906597780e-01  -4.3509848432818599e-01 5.9940812843523306e-01 -1.9652651240098168e-01  -3.2206233621925501e-01 7.2121004234569042e-01 -2.9414480754046468e-01  -5.0281111907601650e-01 5.2283709182941951e-01 -4.3492004896244107e-01  3.8101821051708401e-01 5.9637264739166551e-01 -4.3959908165703704e-01  -6.6340846939288101e-01 5.1688840843446571e-01 -2.6445935811448457e-01  -6.9967242511050776e-01 2.1488992251425670e-01 -4.4725504993838899e-01  9.2912677505413169e-02 7.1015906888151881e-01 -3.2253329034130485e-01  -6.3072478868195225e-01 5.1711747855396417e-01 -3.3621355963612570e-01  -7.9961046405984826e-01 1.6851029946206833e-01 -3.4509175478339055e-01  -4.0741315380548637e-01 3.5537743429970398e-01 -8.8632192340406632e-02  -5.2222248816685324e-01 1.2519681523398843e-01 -7.3195292328286948e-02  -6.8213954381164488e-01 3.3165723191277363e-01 -1.7652491829996733e-01  -7.9390512227817345e-02 7.4258305150906545e-01 -3.7716914656401673e-01  2.2049846701423023e-01 5.8692386358485338e-01 -1.7854860949066489e-01  3.0423019075848506e-01 3.5650512804973900e-01 -6.3006174564884471e-02  3.6895711995577163e-01 5.5891514249500629e-01 -3.1541510755104218e-01  2.6071916212873597e-01 5.4859790189086055e-01 -5.0008393625331760e-01  -6.7996069753294552e-01 1.0971183278823597e-02 -1.4354448401796224e-01  -3.6759361684508474e-01 6.8343890098010940e-01 -3.6156109459812891e-01  5.4875775554113193e-01 3.7859019018176232e-01 -3.4492764265001669e-01  2.4824255270007869e-01 1.3851108379408753e-01 -3.0754147499060105e-02  3.9996404345106479e-01 2.5732284750837686e-01 -6.0613281221465212e-02  1.8972135785532282e-01 2.1975250644738106e-01 -3.4167032546312322e-02  4.1589153335471046e-01 4.4822595692651529e-01 -5.1435933749422669e-01  3.1483150476998645e-01 4.5414768320340387e-01 -5.5216496805006610e-01  1.4648842894196543e-01 5.5982907670662663e-01 -5.1957847731882312e-01  -6.3533114498481902e-01 2.2268799905636988e-01 -5.1176601978553493e-01  -6.3005402890379048e-01 3.0586907568186231e-02 -5.3283491125832738e-01  -6.9274871285724371e-01 -6.4648784188229358e-03 -4.6059123201709012e-01  -5.3794917640369644e-01 -1.3269928960563360e-03 -6.8873218407631040e-02  -3.1248716157078787e-01 3.1355307921687357e-02 -3.6917826642702670e-02  -2.9540101914235500e-01 1.0388958133560483e-01 -3.8459121867000685e-02  4.8075722856763248e-01 2.7497370749350036e-01 -1.1633600750035603e-01  5.1969011770892748e-01 2.8683372135970275e-01 -2.1497911103843256e-01  3.9364588240359610e-01 3.9152117511155110e-01 -1.1027197992589748e-01  5.7374413404784508e-01 2.7769599786589028e-01 -3.0166888031967853e-01  6.1336798566658846e-01 3.4272372018402347e-01 -4.0495634286848115e-01  4.8515439007049299e-01 3.8869192745397391e-01 -2.6599491417009469e-01  5.4766829207417433e-01 4.5662328472515912e-01 -4.5006535424058525e-01  4.7519510802913356e-01 4.6672344681671735e-01 -4.7814619942155884e-01  5.0790702374188446e-01 5.0251372428076335e-01 -4.2139826072213393e-01  3.2145985543678601e-01 5.7858573359998589e-01 -4.6331666896078033e-01  -5.1622027845391563e-02 6.3438330021316280e-01 -4.9062584866130632e-01  -2.3956978987036159e-01 6.2255101888448339e-01 -4.8587555723160275e-01  7.0413953204592497e-02 6.4550754645779229e-01 -4.7724650323355405e-01  -4.2344656216117338e-01 5.3039084901550559e-01 -4.8678006368650711e-01  -5.5605911683948095e-01 3.8981325127457184e-01 -4.9778743968401667e-01  -3.2931076768208284e-01 6.3428046425915086e-01 -4.4062436016441209e-01  -6.2979649978708252e-01 3.8139031587620165e-01 -4.3949879713536572e-01  -6.5418946328852667e-01 -1.2513861229981407e-01 -1.7646189572481241e-01  -6.0062286667103315e-01 -7.2331536496783769e-02 -9.6837827534693485e-02  -6.2593399799128235e-01 8.1265664609348434e-02 -1.0500361228652207e-01  -7.3509307510179800e-01 -9.3431384659348291e-02 -3.4270777794446178e-01  -7.0101257516133286e-01 -8.9645602316799480e-02 -2.5087279903394766e-01  -7.3859688742211149e-01 6.4579250308649389e-02 -2.0409315367936909e-01  -7.4944707735896376e-01 -2.8876374456063694e-02 -4.0610689813832429e-01  -7.5857450170014307e-01 -7.0707617581006257e-02 -3.7985779226150523e-01  -7.9370905356215038e-01 1.4290769146171256e-01 -3.1174293897816407e-01  -7.6292059779089449e-01 1.9729590324760868e-01 -3.8443800290609903e-01  -2.5393339370553175e-01 1.7664968153615698e-01 -4.6403088540068305e-02  -1.9936491752251084e-01 2.4206621502916123e-01 -5.1273548026374398e-02  -4.8003528390646139e-01 2.4419970697147364e-01 -8.3852413473958276e-02  -1.2268577643578703e-01 2.7391215783654116e-01 -4.9577552645368228e-02  -5.1335598863227097e-02 2.9028668743132635e-01 -4.5183301198676244e-02  -2.8887977858574981e-01 4.2956813133107946e-01 -8.7676770347861380e-02  2.5273226243805437e-02 2.9397439700629718e-01 -4.2054943095720311e-02  1.0556082180291344e-01 2.5927959672768097e-01 -3.3796343584448003e-02  -5.2782079149385500e-02 4.7907800523550009e-01 -6.9658445662229243e-02  1.8619262389685581e-01 4.2678791556644524e-01 -6.4161768651551196e-02  -7.5954743264411839e-01 3.2549751812089850e-01 -2.5913634898207089e-01  -7.5979108081181435e-01 3.6002260245543338e-01 -2.9641237978157026e-01  -6.9037771267615378e-01 4.3629831006657660e-01 -2.2301634968573533e-01  -7.4932408355872449e-01 2.3734432253567248e-01 -2.1332255286255272e-01  -7.0585258954471641e-01 1.7216024200843805e-01 -1.5995209035463470e-01  3.4570766543688053e-01 4.9748549224882593e-01 -1.8152196440199078e-01  2.8177413746197078e-01 4.8978337511606773e-01 -1.0861380167167958e-01  2.8721421336254138e-01 5.7638695796704975e-01 -2.4073741156156456e-01  4.0674669043971873e-01 4.7753453694279629e-01 -2.5434662390668672e-01  4.6602434695088379e-01 4.7877071691682205e-01 -3.3565730105478903e-01  -2.4722148681995904e-01 6.9778358789402894e-01 -4.0308356883059748e-01  -4.4337504297824598e-01 6.1563976749189631e-01 -3.9202877284707432e-01  1.3245720409917577e-01 6.8070301003552702e-01 -4.4040254335196810e-01  1.6223250499504843e-01 7.0631803297590667e-01 -4.1253632356724018e-01  -9.8928144810062416e-02 7.2335500189342905e-01 -4.1017328885960042e-01  -2.2691464978375409e-01 7.2629595922691603e-01 -3.6844831427055114e-01  -1.4528324656669625e-01 5.8765734682342363e-01 -1.2455546191784338e-01  -5.2088665771490971e-03 5.9019827333149999e-01 -1.2170371047977692e-01  -3.0525618598332555e-01 5.5466355863587757e-01 -1.3247512351919602e-01  -2.6609985875404579e-01 6.5483301637206870e-01 -1.9497560688062787e-01  -4.4653792349840538e-01 4.8661370295369322e-01 -1.3992049721957417e-01  7.0251831240569343e-02 6.4667700158058949e-01 -1.8143003845603620e-01  1.4901566246876691e-01 5.5698386103478137e-01 -1.1712251045220579e-01  -3.9392167498221659e-01 6.7956938465294137e-01 -2.5045779682804498e-01  -2.0847610636335731e-01 7.2031824341962913e-01 -2.5687542385415263e-01  -1.1023155496191205e-01 7.4017799182344046e-01 -3.1281933511437160e-01  -7.7463572835945764e-03 7.0606804579590698e-01 -2.5155619403788704e-01  1.5862256838476058e-01 6.5671935358133648e-01 -2.5511387422953324e-01  -5.6205609240059973e-01 5.8449591327086126e-01 -2.3481880912882269e-01  -5.1080777351763951e-01 6.4376470197687630e-01 -2.7630566960582492e-01  -5.8303458864347368e-01 4.8548817353619139e-01 -1.8693279139009680e-01  -5.6268471159114686e-01 3.6356930197776943e-01 -1.3215079065329810e-01  -6.5315946510776657e-01 5.2394296006339192e-01 -2.9823989502624848e-01  -4.9155799678982037e-01 6.4681639804924784e-01 -3.0959506895945721e-01  -2.0874471931061195e-01 7.3706596811908409e-01 -3.3732225615593414e-01  1.5752320358581925e-02 7.3781693896113054e-01 -3.5704029908831392e-01  -5.0917583003725131e-01 6.1419329215924134e-01 -3.4332868820176188e-01  -3.4945903245763815e-01 7.0850296334653573e-01 -3.2833896585308936e-01  -5.7009425580190132e-01 5.2784154946743966e-01 -3.8152149296866722e-01  -6.9011650348570952e-01 3.7967281511565748e-01 -3.8482459161163024e-01  2.4282056635105378e-01 6.8583903738196506e-01 -3.9477217411281768e-01  3.9566490544464117e-01 5.9827061680256832e-01 -4.0563804546185023e-01  2.4232181143372741e-01 6.4880507690744804e-01 -3.2255818723153368e-01  -7.4855983701407625e-01 3.5825876562976566e-01 -3.2985574336781448e-01  -6.2833918127959487e-01 2.2735656645006111e-01 -1.2404160960523881e-01  5.7556164258646271e-02 -4.4376644740432891e-01 -2.6229473479848769e-01  -2.9746986778339046e-01 3.7168081136533686e-02 -1.7227986526300580e-02  -3.1217976580316853e-01 -3.9443413220665818e-01 -4.4826766458072381e-01  -2.9212982242667651e-01 -7.5123920035703923e-02 -3.6789980908304515e-02  -1.1233488482081748e-01 -2.3735707740632694e-01 -6.0540467219168295e-02  -5.2137094138268258e-01 -2.0322095407714397e-01 -4.3242441543126936e-01  -5.8898161995206011e-01 5.9104333179263564e-02 -4.0050707454896167e-01  -2.1409310477914986e-01 3.1074289290514495e-01 -6.7880794739120467e-02  -5.1530464043137447e-01 -2.3936780935321386e-01 -3.6215201000518477e-01  -4.2094888620191340e-01 4.0146420864571680e-01 -3.2284778632914307e-01  -2.7321617539066240e-01 -4.3205314670960204e-01 -3.7508048763750207e-01  -3.8053852741606098e-01 -3.2455352832263185e-01 -2.4645308816035200e-01  -1.7752492811803722e-01 -4.1628166009404699e-01 -2.5364202031411820e-01  -2.6239300643644342e-01 -3.1996291554288875e-01 -1.7341924063425423e-01  -4.7310798086255257e-01 -4.5757764783910845e-02 -1.3573624812283128e-01  -4.6790705396880145e-01 1.3711814620120932e-01 -1.2470171432582998e-01  -7.6915677912448910e-02 -4.7805731071239821e-01 -3.7011666426482898e-01  -5.7634785780250553e-01 1.9485458546869971e-03 -2.5288691306668043e-01  -5.6431629624178214e-01 1.8815714934087072e-01 -2.6655661831144345e-01  4.3579054755411135e-02 -3.5289630850241099e-01 -1.6212163953092987e-01  -3.7609742544192665e-01 2.8444610236936857e-01 -1.1656749793968678e-01  -2.3066358164966883e-01 -1.9259690950109035e-01 -6.7909802591308618e-02  -1.2786308829329637e-01 -4.3338024888417398e-01 -4.5915484950167529e-01  -3.6783901329369713e-02 -3.9389296958897752e-01 -2.0502509500934407e-01  -2.6241337561043954e-01 1.4761735462329525e-01 -1.7049300514950950e-02  -3.1147910922081046e-01 4.2854121348143281e-01 -2.0196875458121319e-01  7.3750533577491756e-02 -4.8469871536165282e-01 -3.5597785657811809e-01  1.1461660365487923e-02 -4.7471140282137564e-01 -4.9258580871952096e-01  -4.8116222357507576e-01 3.3486113807327678e-01 -3.9196612573913742e-01  -1.7358617651674493e-01 1.7924315109760772e-01 -2.557317727