<?xml version="1.0"?>
<VTKFile type="UnstructuredGrid"  version="0.1"  >
<UnstructuredGrid>
<Piece  NumberOfPoints="1268" NumberOfCells="4847">
<Points>
<DataArray  type="Float64"  NumberOfComponents="3"  format="ascii">1.994716987487452 0.01317707561264319 -1.202466945460223e-11  1.374072606111497 -0.08614134488653273 -5.388997575085332  -1.285941478930618 0.1916557790035214 -5.691288663606836  -1.59032616235459 -0.4515196446136259 1.626303258728257e-17  0.4950030257755884 2.521650519233041 -5.495391852657774  -0.4107718940653654 -2.429115409112172 -5.58531208084276  -0.9314707163843408 -3.006923447963563 4.87890977618477e-17  1.161824811771535 2.948440156756841 -3.391384395534658e-14  2.146749234505421 0.002696741478414759 -0.5615078450779066  2.330988047973839 -0.000873250973709995 -1.113141311680313  2.540713632977715 -0.1384292375506191 -1.637427654548237  2.645241452520652 -0.2872312815961211 -2.18637082393926  2.504842461151312 -0.2752146673621067 -2.746850782899552  2.287876352721185 -0.2088259978706829 -3.283011632728322  2.137771360922677 -0.2093380261300688 -3.844996501809416  1.970142554575494 -0.2193701374385486 -4.401638277082749  1.701580801829277 -0.1696632515169769 -4.915066532844666  1.398049690886424 0.4419377546899956 -5.387643705321969  1.183972204621215 0.9208338616597355 -5.413149504812257  0.7621482426349403 1.234356207118232 -5.461782499987256  0.2539805730796886 1.370727420898931 -5.519751404145364  -0.2689415860383004 1.319053689498898 -5.578906487138381  -0.7357170559581984 1.076180709179107 -5.631191713357971  -1.086003096318238 0.6812820615514149 -5.669884670156524  -1.65706961757681 -0.5275128747266272 -0.6240725009925172  -1.829082870387909 -0.8347372240299333 -1.153553189134448  -2.030635262011336 -1.097965926806997 -1.693320688638939  -2.148557703924963 -0.9683820133813712 -2.295450526931833  -2.119047321408695 -0.7521727279271558 -2.890676896601294  -1.972500555455803 -0.7106310836492745 -3.509380855831461  -1.885028119342598 -0.4902108162504233 -4.093718100793141  -1.832050776792238 -0.1313823297003599 -4.617858136599065  -1.636180550340053 0.1151199882480144 -5.165527944859976  -1.540434086810702 0.1014447694855235 -7.644826989049428e-17  -1.339902801239663 0.6191128040412099 2.218327606354497e-17  -0.9949589579071262 1.053322092476122 2.12059320661159e-17  -0.5243975458638882 1.346285776146202 7.754217898549941e-16  0.01399251627036286 1.481823287560149 3.252316763596149e-17  0.5696211504784076 1.47677978548424 -7.207855520904863e-17  1.105448032340458 1.331487337928338 1.951563910473908e-16  1.561367740818086 1.018090979386763 -2.179459114756194e-16  1.860006992193919 0.551530302300456 1.369433074745588e-16  -0.152869286718376 2.506583809965366 -5.568804938302105  -0.7781210310064858 2.335338381675429 -5.639249366957451  -1.340550096787874 2.011723800088065 -5.702178028336585  -1.803922993566052 1.555830170950866 -5.753534898075912  -2.144678763029901 1.000979069722826 -5.790734833138769  -2.346903237737564 0.3811866585909049 -5.812061421922149  -2.406990243842066 -0.2684488461825228 -5.817196438260218  -2.318433628103212 -0.9144163570965761 -5.805488779558074  -2.059391262210163 -1.511004864267824 -5.774580158166454  -1.615755841275718 -1.983465489741105 -5.72306417450185  -1.043145925381342 -2.287058241276404 -5.657361969815248  -0.6986882361605687 -2.420627649803484 -5.024556445072709  -0.8272574030199392 -2.685291244074475 -4.476216325063944  -0.8113210073272845 -3.118860027310894 -4.01596683617901  -0.7618552434953355 -3.481598098596065 -3.504026669625047  -0.7509882165597778 -3.609083979854663 -2.886473298216772  -0.7986167670519319 -3.732483084086931 -2.268445488219849  -0.8276969497603353 -3.810997815301134 -1.64593496945388  -0.7425506523451623 -3.557242155569485 -1.078322423839125  -0.7147449622328144 -3.21189056194362 -0.5511080601316157  -1.482234509376526 -2.778582553401298 -5.854479658363816e-16  -1.970737176894139 -2.437284655419533 2.764697292186607e-16  -2.362818572203899 -1.988727212877528 2.439101268600111e-16  -2.642390785384022 -1.462244173776716 5.051059276813266e-16  -2.812149102113852 -0.89052423419162 2.276851973687203e-16  -2.877946727920729 -0.2976446157883296 -1.219909928720168e-16  -2.842947107925845 0.2978601752284433 4.065446096494693e-17  -2.70313036896374 0.8776122116387211 -5.041496169361013e-16  -2.452324348076021 1.418519584933707 4.379274460317988e-16  -2.098265626135573 1.898294456130726 1.951060033519619e-16  -1.658391347368763 2.301023318502569 -1.789574489620802e-16  -1.154148079923361 2.619757341302747 -2.081203863085907e-15  -0.6042202207747882 2.851073703499478 -3.577841418755692e-16  -0.02416138323675775 2.990516581461941 4.065982498622179e-16  0.5710641261211448 3.028216945076794 -1.46882551317968e-16  0.6414151130412097 2.696325287154043 -4.983333021490838  0.771852374565919 2.778456367279237 -4.445188759107248  0.8805845204306011 2.73078881179073 -3.897720120696569  0.9481597620953167 2.69798349057175 -3.343104559074628  0.9815370707090804 2.778214865778854 -2.789250505759619  1.013475345489448 2.861817704396183 -2.235671116027784  1.055849759321274 2.898356228459238 -1.677594140621302  1.093646323460014 2.92793989028903 -1.118725590781912  1.124098871622056 2.957526991478201 -0.5594169689370629  0.2477015793419729 -2.415655802610486 -5.510682951113449  0.8844491790088972 -2.245867158009595 -5.438931443942415  1.464891069119211 -1.932330028996181 -5.373934600293736  1.955087092649627 -1.489613175355717 -5.319502697776375  2.318355026965356 -0.937054784961175 -5.279744576064058  2.524994411863564 -0.307899182343253 -5.257941630215678  2.574632820450045 0.3531084349228537 -5.254020561031156  2.465743861849647 1.006614152640354 -5.268052816559671  2.183897076015212 1.604484044160622 -5.301550147358176  1.722560240631265 2.07491696755195 -5.35506775502591  1.13806318635062 2.378906583716481 -5.422118662603529  1.742182153284979 2.73179858498085 5.854691697147836e-16  2.262480931380501 2.395264875892136 -2.601681534737615e-16  2.698000706832733 1.954727370266727 -3.903113804560263e-16  3.021530388777258 1.426473918441798 1.707421408502106e-16  3.223363606607101 0.8405687193648443 -2.844806418042028e-16  3.305434793487241 0.2261994274297442 -4.472186606099012e-16  3.269241566985055 -0.3926051469820059 3.171555149681837e-16  3.113478077610213 -0.9924495549400153 3.510830505762065e-16  2.840400132149515 -1.548806515270482 -1.707368614952523e-16  2.466120284856568 -2.042983582774378 9.732831365154574e-17  2.008125599488538 -2.460814027017948 -3.577575055983979e-16  1.482521285196868 -2.789563899556613 -4.886146623064541e-17  0.9057866143556688 -3.01678997208197 -2.439392613813594e-16  0.2964958724913082 -3.130681163554852 3.414395345104792e-16  -0.32338307292875 -3.126978161260848 2.926910878106614e-16  -1.29067345658392 -0.3506098753383553 -5.690421630247788  -1.068897680254163 -0.8451623229646739 -5.663999894259847  -0.6782440885714781 -1.219621806060448 -5.6187489875115  -0.168757542531344 -1.390394566692369 -5.560546895724229  0.3611301401510615 -1.294122251639114 -5.500717901478111  0.8191548613516448 -1.005201308695582 -5.449538098373106  1.16817203978903 -0.5892762115769014 -5.411042670828763  1.960898302630318 -0.551652302616722 -8.131516293641286e-17  1.751009740180289 -1.077278642631261 7.445724005953314e-16  1.394016468000002 -1.516729095803803 1.136104663605282e-15  0.9227767039454898 -1.830301465573364 3.434443593283319e-16  0.3780412068884804 -1.984007749105097 8.617772484356591e-16  -0.1885780664025548 -1.977994130030172 2.357202029695971e-16  -0.7327557451871473 -1.821291124380143 1.942410916395698e-17  -1.191068596016128 -1.491774666596192 2.975009434367945e-16  -1.480405544894888 -1.006855825633415 6.954512630084263e-16  -1.812414118534285 0.2561131097252937 -2.664867827914479  2.421751940242729 0.6298287624476981 -1.933377861698098  0.7556418177061754 1.42269463362527 -4.617654324361507  0.003134751711410342 1.574821943356493 -0.9318675177876981  1.015098001669947 1.51699057942374 -0.9441494884276413  0.6193243625380082 1.764115149411371 -1.862230514405671  -0.4757031201037318 1.549728101933577 -1.958273018773558  0.1126459993007786 1.698838152590054 -2.957602797129454  -0.3405660022430232 1.569615851499001 -4.678135257405353  1.818199099779932 0.7365610114574719 -3.763003518505052  -0.9541815370276669 1.23451227632913 -2.875526912859068  -1.269464226480212 1.016489154450913 -4.672047638709048  1.301562892980348 1.557566760682666 -2.802482532053872  -0.7813756340336595 1.414221906310649 -3.725761628685261  -1.58370798409762 0.5643609111372817 -3.581008460136619  -0.988817348255397 1.158392548936659 -1.014254585170146  -1.607700527190565 0.2800106654898483 -1.030081240453645  -1.388203055800784 0.7951310659851955 -1.943712885648593  0.8261955720421881 1.570157055202129 -3.620947225245673  1.681455131778566 1.410849015379531 -1.876189895849114  1.878739160554727 0.943024132521903 -0.9866418074548234  2.103426639579445 1.000735947836943 -2.593434794762663  1.62623803052506 0.6468498306152269 -4.727220189271843  -1.882943490361709 -0.1546739965127431 -1.761716647663214  0.05868355051519467 1.656538949473053 -3.863342338366238  2.465845305360337 0.2632819454094029 -2.663569745038379  1.994842599423799 0.5019775153043848 -0.4779055074204815  2.1671824130763 0.4980244878585698 -1.027636182799239  1.710213566460811 0.9718796190568162 -0.4957578884333736  1.845584590132108 0.2253887364997403 -4.583879812097906  1.579035044615276 0.2924902970866011 -5.101748935835201  1.409777182251665 0.7868327264427526 -5.07202467441607  -1.039178737375989 1.089168173550246 -5.170746090958521  -1.377687418630729 0.6683636420802941 -5.233117919580046  -1.641402128985454 0.4875654733502939 -4.648722230221863  -1.765467255797776 -0.2695484060062747 -1.079683539430899  -1.617858736076732 -0.08318463488274264 -0.5123563299218489  -1.474019211051276 0.4496529111656123 -0.5150171376928306  2.417677350191343 0.3274903893149403 -1.506992657970159 
[...]
<PointData  Vectors="displacement"> 
<DataArray  type="Float64"  Name="displacement"  NumberOfComponents="3" format="ascii">0.0000000000000000e+00 0.0000000000000000e+00 0.0000000000000000e+00  3.8445482524758945e-01 3.1726076294618155e-01 -5.7236479206795476e-01  -4.9673960083075813e-01 -1.3264556930834961e-01 -5.7168183884628532e-01  0.0000000000000000e+00 0.0000000000000000e+00 0.0000000000000000e+00  -4.5311783200753952e-01 3.5257077460222835e-01 -4.1129170458913134e-01  3.0660531605934649e-01 -2.7395914934505472e-01 -5.9504534954305244e-01  0.0000000000000000e+00 0.0000000000000000e+00 0.0000000000000000e+00  0.0000000000000000e+00 0.0000000000000000e+00 0.0000000000000000e+00  2.9814647536866001e-01 6.9114339944051917e-02 -2.6660504066982702e-02  4.5959239657138301e-01 1.3921430979602592e-01 -6.3937907097651819e-02  5.3200029629771572e-01 1.5819870242721457e-01 -1.3570438140535021e-01  5.7228996335641780e-01 1.7410726750366406e-01 -2.3921702650223703e-01  6.2362947226209897e-01 2.2388486725513554e-01 -3.5706774404508007e-01  6.3998058987986628e-01 2.7997797639822952e-01 -4.3257350574809511e-01  5.9950144540115269e-01 3.0263467235076524e-01 -4.6853786416758214e-01  5.2815247564729773e-01 3.0904419718377868e-01 -5.0341493850722629e-01  4.5718791196423914e-01 3.1882046155093013e-01 -5.4357107104689362e-01  2.0324896003830450e-01 4.6630299673010334e-01 -5.3494331524382777e-01  8.8052953371561375e-03 5.3970638400166326e-01 -5.1493674802916656e-01  -1.7439771390670564e-01 5.5562385113024548e-01 -4.9852084455589607e-01  -3.3752242462554299e-01 4.9527308578909246e-01 -5.1171828352195303e-01  -4.6701510026045590e-01 3.8192293730670163e-01 -5.2364662525224748e-01  -5.4221652935373865e-01 2.2838595739772566e-01 -5.4320729811114021e-01  -5.5834345875293490e-01 5.0751356239980859e-02 -5.5973565729294816e-01  -3.4968652386251770e-01 -3.5655444253590268e-02 -3.3276315862268979e-02  -4.8707684335852791e-01 -1.3479602518211484e-01 -5.1710483858357373e-02  -5.0790014469425659e-01 -2.3645624515552935e-01 -1.2024963290871427e-01  -5.5725904502141044e-01 -2.5177837246789697e-01 -2.2571778887436336e-01  -6.0353277075842870e-01 -2.4997028119473397e-01 -3.2084109212847539e-01  -6.0245477031038852e-01 -2.9033371784207490e-01 -3.9629244649918505e-01  -5.9152532502204458e-01 -2.8105651245365115e-01 -4.3030735693416639e-01  -5.7769564017124342e-01 -2.2110656929015407e-01 -4.5846214997515872e-01  -5.4375662147573178e-01 -1.7576135041228297e-01 -5.1585272518290193e-01  0.0000000000000000e+00 0.0000000000000000e+00 0.0000000000000000e+00  0.0000000000000000e+00 0.0000000000000000e+00 0.0000000000000000e+00  0.0000000000000000e+00 0.0000000000000000e+00 0.0000000000000000e+00  0.0000000000000000e+00 0.0000000000000000e+00 0.0000000000000000e+00  0.0000000000000000e+00 0.0000000000000000e+00 0.0000000000000000e+00  0.0000000000000000e+00 0.0000000000000000e+00 0.0000000000000000e+00  0.0000000000000000e+00 0.0000000000000000e+00 0.0000000000000000e+00  0.0000000000000000e+00 0.0000000000000000e+00 0.0000000000000000e+00  0.0000000000000000e+00 0.0000000000000000e+00 0.0000000000000000e+00  -5.0849341328852371e-01 2.5614584092356096e-01 -4.1850643369074664e-01  -5.4132196728913018e-01 1.4650322259134216e-01 -4.2438285215976884e-01  -5.4397971747165519e-01 3.3627304697501206e-02 -4.3714273804101078e-01  -5.1137799370808845e-01 -8.0235555846532233e-02 -4.4486130812393276e-01  -4.5422209574160199e-01 -1.9542243707879239e-01 -4.5285234771606830e-01  -3.5961702961882674e-01 -2.9502857208634659e-01 -4.6441378265137284e-01  -2.4405228278404459e-01 -3.6413046425123669e-01 -4.6925949045138593e-01  -1.1414561471581407e-01 -3.9982795019127615e-01 -4.7683079903405662e-01  2.3609283529647536e-02 -4.0359121903149558e-01 -4.9918628822610267e-01  1.0865529112187058e-01 -3.7790497051327215e-01 -5.2067859779129844e-01  2.0485420937615584e-01 -3.2990588954832922e-01 -5.5209278372269754e-01  2.3154607900005889e-01 -4.3100959768281849e-01 -5.5455911325539853e-01  2.0220845971561521e-01 -4.9880176840666268e-01 -4.8607305816448804e-01  2.0984885928825706e-01 -4.8710115643952895e-01 -3.9286467113611634e-01  2.0907603382163389e-01 -4.5583299143533285e-01 -3.2356346169691030e-01  1.9371197571985613e-01 -4.3947932354090324e-01 -2.6996615714405470e-01  1.5851583869477087e-01 -3.9157873427517076e-01 -1.9422482245934072e-01  1.4248252722407137e-01 -3.2634007275539800e-01 -1.4147309927252777e-01  1.0291859388415370e-01 -2.8303471154272669e-01 -9.2266600261083007e-02  5.1114511256578433e-02 -1.8427778813870729e-01 -2.2811152101717552e-02  0.0000000000000000e+00 0.0000000000000000e+00 0.0000000000000000e+00  0.0000000000000000e+00 0.0000000000000000e+00 0.0000000000000000e+00  0.0000000000000000e+00 0.0000000000000000e+00 0.0000000000000000e+00  0.0000000000000000e+00 0.0000000000000000e+00 0.0000000000000000e+00  0.0000000000000000e+00 0.0000000000000000e+00 0.0000000000000000e+00  0.0000000000000000e+00 0.0000000000000000e+00 0.0000000000000000e+00  0.0000000000000000e+00 0.0000000000000000e+00 0.0000000000000000e+00  0.0000000000000000e+00 0.0000000000000000e+00 0.0000000000000000e+00  0.0000000000000000e+00 0.0000000000000000e+00 0.0000000000000000e+00  0.0000000000000000e+00 0.0000000000000000e+00 0.0000000000000000e+00  0.0000000000000000e+00 0.0000000000000000e+00 0.0000000000000000e+00  0.0000000000000000e+00 0.0000000000000000e+00 0.0000000000000000e+00  0.0000000000000000e+00 0.0000000000000000e+00 0.0000000000000000e+00  0.0000000000000000e+00 0.0000000000000000e+00 0.0000000000000000e+00  0.0000000000000000e+00 0.0000000000000000e+00 0.0000000000000000e+00  -4.2333790405941885e-01 3.9225465292768319e-01 -3.8830162277779684e-01  -3.7498858450863298e-01 4.3166340679749909e-01 -3.6439473600039202e-01  -3.0214779448457690e-01 4.6858443011642370e-01 -3.2951310564578146e-01  -2.2687650834375792e-01 4.8696401577127491e-01 -2.7445962161724280e-01  -1.8133913383024688e-01 4.6703734243246975e-01 -2.0957001962920435e-01  -1.4204188997811992e-01 4.1760055483620551e-01 -1.4059412246665431e-01  -1.0784309096992623e-01 3.4506177018818934e-01 -7.4941366986443034e-02  -8.0832420126917159e-02 2.3731310134231287e-01 -1.0904701948503704e-02  -4.3398184353583086e-02 1.1927221580521531e-01 2.9966962673684067e-02  3.9942558901570369e-01 -1.9115445136122905e-01 -6.1935744703145890e-01  4.7410120763961561e-01 -7.7648708921888840e-02 -6.2008144155765610e-01  4.9759684217861011e-01 6.7882966864776684e-02 -6.0477212524732571e-01  4.7541502723032331e-01 2.2120703379631737e-01 -5.6682763140488335e-01  3.8771564418530546e-01 3.5882596997193195e-01 -5.2656031501668610e-01  2.6485744281362944e-01 4.6478052678109194e-01 -4.8815818225288338e-01  1.2090155479340389e-01 5.2985723413107133e-01 -4.5574667598878893e-01  -3.4680071059923080e-02 5.6196437842956104e-01 -4.3935664655195089e-01  -1.7067136923905715e-01 5.3812171693863819e-01 -4.2024792054023058e-01  -2.8353341460791220e-01 5.0118274596208656e-01 -4.1057002519019065e-01  -3.6986999948529992e-01 4.3557698038963405e-01 -4.0580158417559742e-01  0.0000000000000000e+00 0.0000000000000000e+00 0.0000000000000000e+00  0.0000000000000000e+00 0.0000000000000000e+00 0.0000000000000000e+00  0.0000000000000000e+00 0.0000000000000000e+00 0.0000000000000000e+00  0.0000000000000000e+00 0.0000000000000000e+00 0.0000000000000000e+00  0.0000000000000000e+00 0.0000000000000000e+00 0.0000000000000000e+00  0.0000000000000000e+00 0.0000000000000000e+00 0.0000000000000000e+00  0.0000000000000000e+00 0.0000000000000000e+00 0.0000000000000000e+00  0.0000000000000000e+00 0.0000000000000000e+00 0.0000000000000000e+00  0.0000000000000000e+00 0.0000000000000000e+00 0.0000000000000000e+00  0.0000000000000000e+00 0.0000000000000000e+00 0.0000000000000000e+00  0.0000000000000000e+00 0.0000000000000000e+00 0.0000000000000000e+00  0.0000000000000000e+00 0.0000000000000000e+00 0.0000000000000000e+00  0.0000000000000000e+00 0.0000000000000000e+00 0.0000000000000000e+00  0.0000000000000000e+00 0.0000000000000000e+00 0.0000000000000000e+00  0.0000000000000000e+00 0.0000000000000000e+00 0.0000000000000000e+00  -3.6854192083783927e-01 -2.9851377869738832e-01 -5.7811976985056912e-01  -1.8471881554134117e-01 -4.1553169697581982e-01 -5.8650945212891425e-01  3.6243248787566747e-02 -4.5651029227941869e-01 -5.9079713180736060e-01  2.5140087025849600e-01 -4.0648149209080281e-01 -6.0841477562923485e-01  4.2354122052960858e-01 -2.9474908793998683e-01 -6.1849811609356709e-01  5.1256044089764741e-01 -1.0845998051931090e-01 -6.2070132257878530e-01  4.9649546078313894e-01 1.1676681991192907e-01 -6.0436074660235894e-01  0.0000000000000000e+00 0.0000000000000000e+00 0.0000000000000000e+00  0.0000000000000000e+00 0.0000000000000000e+00 0.0000000000000000e+00  0.0000000000000000e+00 0.0000000000000000e+00 0.0000000000000000e+00  0.0000000000000000e+00 0.0000000000000000e+00 0.0000000000000000e+00  0.0000000000000000e+00 0.0000000000000000e+00 0.0000000000000000e+00  0.0000000000000000e+00 0.0000000000000000e+00 0.0000000000000000e+00  0.0000000000000000e+00 0.0000000000000000e+00 0.0000000000000000e+00  0.0000000000000000e+00 0.0000000000000000e+00 0.0000000000000000e+00  0.0000000000000000e+00 0.0000000000000000e+00 0.0000000000000000e+00  -7.4722850927327811e-01 1.0354575819281094e-01 -2.5278008646206529e-01  4.3172473994079652e-01 3.7945012320500238e-01 -1.8212737470630130e-01  -1.2867113327504592e-01 6.6731632113387696e-01 -4.2335411404332451e-01  -1.5855312342699363e-01 4.5366624283187473e-01 -7.8294765956468559e-02  6.3456866143539306e-02 4.5602091854000698e-01 -6.8963635729657011e-02  -9.1904076699901249e-02 6.4872489530655153e-01 -1.8430869921093823e-01  -4.2288868078940756e-01 5.8057031153439231e-01 -1.8950800507915841e-01  -3.1525255118649370e-01 6.9959975856627088e-01 -2.8098588798419660e-01  -4.9218982316103532e-01 5.0551942126290217e-01 -4.1321909046958699e-01  3.6834846056309556e-01 5.8146652827204892e-01 -4.1999218500357316e-01  -6.4549248698719763e-01 5.0045894129151891e-01 -2.5288156442466581e-01  -6.8161813013059092e-01 2.0487203186424577e-01 -4.2578673461808275e-01  8.7909441384153658e-02 6.8995894676428127e-01 -3.0924129757936608e-01  -6.1504230461846221e-01 5.0018668178556513e-01 -3.2007652178810542e-01  -7.7688689406084022e-01 1.6099851003367946e-01 -3.2947470546684143e-01  -3.9367416685629170e-01 3.4354106243265781e-01 -8.7819987866323820e-02  -5.0456715197310709e-01 1.2147261309045956e-01 -7.2726399705196523e-02  -6.6145573925241663e-01 3.2080988504266977e-01 -1.7055285232043804e-01  -8.0347701469925523e-02 7.2127129107380761e-01 -3.5958354256073782e-01  2.1254021583735061e-01 5.6904803457155750e-01 -1.7184570726089382e-01  2.9409905625846783e-01 3.4364809006946501e-01 -6.2225922405628395e-02  3.5665817787300819e-01 5.4378459011320135e-01 -3.0298080227233565e-01  2.5063494092286998e-01 5.3564606300767781e-01 -4.7612189573276004e-01  -6.5803790584809219e-01 1.0633313458576607e-02 -1.3880055677407865e-01  -3.6036639788013708e-01 6.6261190912673384e-01 -3.4384013374131334e-01  5.3250294831757439e-01 3.6954338776310741e-01 -3.3167267286440177e-01  2.4002626065734409e-01 1.3243853071005407e-01 -3.1460493726948424e-02  3.8659990475803091e-01 2.4773626057924583e-01 -5.9585407426804224e-02  1.8357350069723838e-01 2.1109023332685359e-01 -3.4894108344212617e-02  4.0306318327095719e-01 4.3884798474660541e-01 -4.9079612218936819e-01  3.0429971118005750e-01 4.4432623867267218e-01 -5.2612138355337534e-01  1.3902973557659332e-01 5.4607266003406441e-01 -4.9417470127182039e-01  -6.1984004082776978e-01 2.1247020422442611e-01 -4.8734787017219816e-01  -6.1324698405199662e-01 2.5088120955013175e-02 -5.0798952647181272e-01  -6.7304325218030836e-01 -1.0624744574341188e-02 -4.3932692065699536e-01  -5.1977956678788118e-01 -5.3951334945396428e-04 -6.8211259741203387e-02  -3.0174179736246942e-01 3.1187762536875736e-02 -3.7750791718154923e-02  -2.8500139157825660e-01 1.0106187670440768e-01 -3.9377541583808573e-02  4.6523214132346513e-01 2.6624067070568058e-01 -1.1230056821615220e-01  5.0354521915089645e-01 2.7911942456909244e-01 -2.0654430972515858e-01  3.8056541048200826e-01 3.7875912071710810e-01 -1.0672395395556489e-01  5.5694844640381813e-01 2.7108374626019183e-01 -2.9017739153742361e-01  5.9601641923132331e-01 3.3517378774947865e-01 -3.8927479555017974e-01  4.6999491614344069e-01 3.7855028373454852e-01 -2.5560184547250836e-01  5.3169687432400781e-01 4.4613257825988678e-01 -4.3123922107810803e-01  4.6089683083998306e-01 4.5653807654639544e-01 -4.5690127884412046e-01  4.9252896151284303e-01 4.9027253621918543e-01 -4.0437163837316997e-01  3.0999277075282722e-01 5.6457733198370319e-01 -4.4161291679156234e-01  -5.4401387410910551e-02 6.1695516278025786e-01 -4.6590439276996082e-01  -2.3723267330386469e-01 6.0403632814764696e-01 -4.6136143298105681e-01  6.4644744572958268e-02 6.2836318756647658e-01 -4.5368517681338255e-01  -4.1573551130660613e-01 5.1338466685297046e-01 -4.6251005783366650e-01  -5.4402034647943276e-01 3.7563963658849114e-01 -4.7316164898047491e-01  -3.2393265495631735e-01 6.1481064741593128e-01 -4.1864926397025637e-01  -6.1500872379975280e-01 3.6730703993163161e-01 -4.1787669544826855e-01  -6.3286266287820281e-01 -1.2158584479685769e-01 -1.6968943517113780e-01  -5.8072820653205581e-01 -6.9559006343117416e-02 -9.4103164171642398e-02  -6.0541893497572086e-01 7.8878014941450539e-02 -1.0252828936304714e-01  -7.1237398399108365e-01 -9.2912533608079578e-02 -3.2869809841450365e-01  -6.7874108768063490e-01 -8.7917011577909043e-02 -2.4097100858743253e-01  -7.1562683775651903e-01 6.2030992517925293e-02 -1.9636755785789556e-01  -7.2728262119998432e-01 -3.1744364303204334e-02 -3.8754236562812516e-01  -7.3546724002915365e-01 -7.1542501349842344e-02 -3.6353961903500476e-01  -7.7053679370752237e-01 1.3669125897306281e-01 -2.9840258672732356e-01  -7.4212746592779300e-01 1.8829466081026694e-01 -3.6609277674404933e-01  -2.4485754615027835e-01 1.7108046139548008e-01 -4.6949164197752476e-02  -1.9188888660752929e-01 2.3391584291560050e-01 -5.1887456696045095e-02  -4.6381481967508059e-01 2.3632161707255384e-01 -8.3315002020510509e-02  -1.1774286722926297e-01 2.6467091837595125e-01 -5.0100583802648389e-02  -4.8941466454138362e-02 2.8027986156360557e-01 -4.5955311064410004e-02  -2.7897622293028257e-01 4.1504641195948916e-01 -8.6918622990081532e-02  2.5065421026380083e-02 2.8337006619430455e-01 -4.2851513608082967e-02  1.0252205239020444e-01 2.4962543220050878e-01 -3.4595523798670112e-02  -5.0702128118599449e-02 4.6246329257949509e-01 -6.9367919399390202e-02  1.8000235169935447e-01 4.1168470244872885e-01 -6.3574125138843654e-02  -7.3774247784021296e-01 3.1456493673812380e-01 -2.4819987066792082e-01  -7.3889632244331460e-01 3.4765603941010492e-01 -2.8293047366255702e-01  -6.7051166789533267e-01 4.2221337636290129e-01 -2.1410557344898273e-01  -7.2675157939647750e-01 2.2934576574127247e-01 -2.0519055948289600e-01  -6.8377446371819106e-01 1.6648797952843439e-01 -1.5466873465698586e-01  3.3407480067636919e-01 4.8262331017960203e-01 -1.7457844713083931e-01  2.7225483033792547e-01 4.7368596619659042e-01 -1.0525891873137787e-01  2.7698857056927345e-01 5.5973573911139207e-01 -2.3128198800490979e-01  3.9344176622948207e-01 4.6435846291186117e-01 -2.4437126161138975e-01  4.5137258324369928e-01 4.6647501633899080e-01 -3.2275845947768811e-01  -2.4396589286699893e-01 6.7682073910051399e-01 -3.8303199154461220e-01  -4.3420589608713056e-01 5.9639761862862728e-01 -3.7251784086494188e-01  1.2537741293565549e-01 6.6260659011939538e-01 -4.1916718182475615e-01  1.5478248717468818e-01 6.8719126370065853e-01 -3.9364650257323941e-01  -9.9859097931803434e-02 7.0251387876222493e-01 -3.9013919206571718e-01  -2.2383707591516094e-01 7.0482273658356764e-01 -3.5082762511264365e-01  -1.4113567667252974e-01 5.6846911201637351e-01 -1.2111981915335435e-01  -5.5314120465981857e-03 5.7096720892934683e-01 -1.1846013556094385e-01  -2.9600936491813973e-01 5.3651620622006213e-01 -1.2880086009778535e-01  -2.5911890798773701e-01 6.3437843835011742e-01 -1.8794588313512925e-01  -4.3273390836624415e-01 4.7070642003538227e-01 -1.3610256469038634e-01  6.6915324564633547e-02 6.2676681391405498e-01 -1.7481632725778767e-01  1.4375109562931038e-01 5.3867171530072344e-01 -1.1382906089968237e-01  -3.8401353680630040e-01 6.5871984607206635e-01 -2.4024837185873743e-01  -2.0414478591627097e-01 6.9872762651194120e-01 -2.4663693615460924e-01  -1.0958085149594729e-01 7.1855009544293202e-01 -2.9937066139777646e-01  -9.3441304266333874e-03 6.8509506793404251e-01 -2.4158713966100914e-01  1.5210679598627491e-01 6.3757590060539837e-01 -2.4498233798105762e-01  -5.4665891273837575e-01 5.6624251384532265e-01 -2.2546275626641557e-01  -4.9807733578793700e-01 6.2389257919711727e-01 -2.6407890663913203e-01  -5.6586647313045335e-01 4.6989284465311487e-01 -1.8041890249187967e-01  -5.4498848322567917e-01 3.5165817187287468e-01 -1.2881333569496378e-01  -6.3626736250449689e-01 5.0705877977485470e-01 -2.8441675991558268e-01  -4.8001974300480532e-01 6.2694698799940152e-01 -2.9501313399535661e-01  -2.0573924351081579e-01 7.1544075683343522e-01 -3.2193477536732745e-01  1.2588807853982250e-02 7.1690732915627675e-01 -3.4140703682256751e-01  -4.9748314651688585e-01 5.9497978692606879e-01 -3.2646475954355014e-01  -3.4239522270225570e-01 6.8727250475564650e-01 -3.1285317684582220e-01  -5.5686680704399216e-01 5.1051495197545671e-01 -3.6259454546767073e-01  -6.7271933384586058e-01 3.6593409462390686e-01 -3.6614714882441557e-01  2.3352524416151901e-01 6.6724169962661717e-01 -3.7782862161927366e-01  3.8272842191921752e-01 5.8275816136394665e-01 -3.8904682437092269e-01  2.3327924846780992e-01 6.3074230083416050e-01 -3.0958540132197726e-01  -7.2862297087836037e-01 3.4547922232157274e-01 -3.1410871893977033e-01  -6.0828220415482148e-01 2.1996892972080229e-01 -1.2096959290106102e-01  6.1969336604736643e-02 -4.3126247317645011e-01 -2.5019446710161186e-01  -2.8763432581103943e-01 3.4091254012279748e-02 -1.4733682684827215e-02  -3.0068289917281371e-01 -3.9174817409615115e-01 -4.2938635023286859e-01  -2.8179952527823204e-01 -7.4439706433613501e-02 -3.3996575227005950e-02  -1.0601095180130185e-01 -2.3018044577157637e-01 -5.8048047040866545e-02  -5.0783721868577802e-01 -2.0538856496176550e-01 -4.1383075243887768e-01  -5.7628873222584553e-01 5.2205191331531300e-02 -3.8265567469230161e-01  -2.0952266470072700e-01 3.0010395044442661e-01 -6.2659058478879912e-02  -4.9967855604720635e-01 -2.3917419988330366e-01 -3.4678253078665527e-01  -4.1372721418527719e-01 3.8885996553261581e-01 -3.0780841538565179e-01  -2.6075324936222205e-01 -4.2634287588454817e-01 -3.5929341474202414e-01  -3.6720431217865235e-01 -3.2047110519150646e-01 -2.3550593009859536e-01  -1.6735236682658439e-01 -4.0807738077324562e-01 -2.4218817910508073e-01  -2.5137287644364459e-01 -3.1383514232179216e-01 -1.6581321248421005e-01  -4.5911065879421364e-01 -4.7785777875352445e-02 -1.2890339757010361e-01  -4.5508743981682648e-01 1.3060922730919122e-01 -1.1748298314755730e-01  -6.8258776901897841e-02 -4.6907181780930157e-01 -3.5379140214510851e-01  -5.6104329461541469e-01 -2.4169247759982630e-03 -2.4113500582433842e-01  -5.5074246365448620e-01 1.7962468445120411e-01 -2.5406881956714578e-01  4.6959773171675809e-02 -3.4229517005481397e-01 -1.5518858235753957e-01  -3.6657134852000745e-01 2.7447915915511872e-01 -1.0929194815476205e-01  -2.2123656280570411e-01 -1.8805813843700531e-01 -6.4797769259129862e-02  -1.1903579637820062e-01 -4.2657429727048929e-01 -4.3877149972818619e-01  -3.0585082953490605e-02 -3.8379670804191435e-01 -1.9577236979853457e-01  -2.5420562485883846e-01 1.4146912319637175e-01 -1.4423974232088457e-02  -3.0545788510045646e-01 4.1520639013128297e-01 -1.9161457578700733e-01  7.8901679729253119e-02 -4.7299712780686670e-01 -3.4011712510755548e-01  1.7862894641094560e-02 -4.6459134766761823e-01 -4.7144789834532447e-01  -4.7377371681960179e-01 3.2377905306371085e-01 -3.7366957836119180e-01  -1.6868410760300853e-01 1.7221125109806201e-01 -4.77401846