<?xml version="1.0"?>
<VTKFile type="UnstructuredGrid"  version="0.1"  >
<UnstructuredGrid>
<Piece  NumberOfPoints="1268" NumberOfCells="4847">
<Points>
<DataArray  type="Float64"  NumberOfComponents="3"  format="ascii">1.994716987487452 0.01317707561264319 -1.202466945460223e-11  1.374072606111497 -0.08614134488653273 -5.388997575085332  -1.285941478930618 0.1916557790035214 -5.691288663606836  -1.59032616235459 -0.4515196446136259 1.626303258728257e-17  0.4950030257755884 2.521650519233041 -5.495391852657774  -0.4107718940653654 -2.429115409112172 -5.58531208084276  -0.9314707163843408 -3.006923447963563 4.87890977618477e-17  1.161824811771535 2.948440156756841 -3.391384395534658e-14  2.146749234505421 0.002696741478414759 -0.5615078450779066  2.330988047973839 -0.000873250973709995 -1.113141311680313  2.540713632977715 -0.1384292375506191 -1.637427654548237  2.645241452520652 -0.2872312815961211 -2.18637082393926  2.504842461151312 -0.2752146673621067 -2.746850782899552  2.287876352721185 -0.2088259978706829 -3.283011632728322  2.137771360922677 -0.2093380261300688 -3.844996501809416  1.970142554575494 -0.2193701374385486 -4.401638277082749  1.701580801829277 -0.1696632515169769 -4.915066532844666  1.398049690886424 0.4419377546899956 -5.387643705321969  1.183972204621215 0.9208338616597355 -5.413149504812257  0.7621482426349403 1.234356207118232 -5.461782499987256  0.2539805730796886 1.370727420898931 -5.519751404145364  -0.2689415860383004 1.319053689498898 -5.578906487138381  -0.7357170559581984 1.076180709179107 -5.631191713357971  -1.086003096318238 0.6812820615514149 -5.669884670156524  -1.65706961757681 -0.5275128747266272 -0.6240725009925172  -1.829082870387909 -0.8347372240299333 -1.153553189134448  -2.030635262011336 -1.097965926806997 -1.693320688638939  -2.148557703924963 -0.9683820133813712 -2.295450526931833  -2.119047321408695 -0.7521727279271558 -2.890676896601294  -1.972500555455803 -0.7106310836492745 -3.509380855831461  -1.885028119342598 -0.4902108162504233 -4.093718100793141  -1.832050776792238 -0.1313823297003599 -4.617858136599065  -1.636180550340053 0.1151199882480144 -5.165527944859976  -1.540434086810702 0.1014447694855235 -7.644826989049428e-17  -1.339902801239663 0.6191128040412099 2.218327606354497e-17  -0.9949589579071262 1.053322092476122 2.12059320661159e-17  -0.5243975458638882 1.346285776146202 7.754217898549941e-16  0.01399251627036286 1.481823287560149 3.252316763596149e-17  0.5696211504784076 1.47677978548424 -7.207855520904863e-17  1.105448032340458 1.331487337928338 1.951563910473908e-16  1.561367740818086 1.018090979386763 -2.179459114756194e-16  1.860006992193919 0.551530302300456 1.369433074745588e-16  -0.152869286718376 2.506583809965366 -5.568804938302105  -0.7781210310064858 2.335338381675429 -5.639249366957451  -1.340550096787874 2.011723800088065 -5.702178028336585  -1.803922993566052 1.555830170950866 -5.753534898075912  -2.144678763029901 1.000979069722826 -5.790734833138769  -2.346903237737564 0.3811866585909049 -5.812061421922149  -2.406990243842066 -0.2684488461825228 -5.817196438260218  -2.318433628103212 -0.9144163570965761 -5.805488779558074  -2.059391262210163 -1.511004864267824 -5.774580158166454  -1.615755841275718 -1.983465489741105 -5.72306417450185  -1.043145925381342 -2.287058241276404 -5.657361969815248  -0.6986882361605687 -2.420627649803484 -5.024556445072709  -0.8272574030199392 -2.685291244074475 -4.476216325063944  -0.8113210073272845 -3.118860027310894 -4.01596683617901  -0.7618552434953355 -3.481598098596065 -3.504026669625047  -0.7509882165597778 -3.609083979854663 -2.886473298216772  -0.7986167670519319 -3.732483084086931 -2.268445488219849  -0.8276969497603353 -3.810997815301134 -1.64593496945388  -0.7425506523451623 -3.557242155569485 -1.078322423839125  -0.7147449622328144 -3.21189056194362 -0.5511080601316157  -1.482234509376526 -2.778582553401298 -5.854479658363816e-16  -1.970737176894139 -2.437284655419533 2.764697292186607e-16  -2.362818572203899 -1.988727212877528 2.439101268600111e-16  -2.642390785384022 -1.462244173776716 5.051059276813266e-16  -2.812149102113852 -0.89052423419162 2.276851973687203e-16  -2.877946727920729 -0.2976446157883296 -1.219909928720168e-16  -2.842947107925845 0.2978601752284433 4.065446096494693e-17  -2.70313036896374 0.8776122116387211 -5.041496169361013e-16  -2.452324348076021 1.418519584933707 4.379274460317988e-16  -2.098265626135573 1.898294456130726 1.951060033519619e-16  -1.658391347368763 2.301023318502569 -1.789574489620802e-16  -1.154148079923361 2.619757341302747 -2.081203863085907e-15  -0.6042202207747882 2.851073703499478 -3.577841418755692e-16  -0.02416138323675775 2.990516581461941 4.065982498622179e-16  0.5710641261211448 3.028216945076794 -1.46882551317968e-16  0.6414151130412097 2.696325287154043 -4.983333021490838  0.771852374565919 2.778456367279237 -4.445188759107248  0.8805845204306011 2.73078881179073 -3.897720120696569  0.9481597620953167 2.69798349057175 -3.343104559074628  0.9815370707090804 2.778214865778854 -2.789250505759619  1.013475345489448 2.861817704396183 -2.235671116027784  1.055849759321274 2.898356228459238 -1.677594140621302  1.093646323460014 2.92793989028903 -1.118725590781912  1.124098871622056 2.957526991478201 -0.5594169689370629  0.2477015793419729 -2.415655802610486 -5.510682951113449  0.8844491790088972 -2.245867158009595 -5.438931443942415  1.464891069119211 -1.932330028996181 -5.373934600293736  1.955087092649627 -1.489613175355717 -5.319502697776375  2.318355026965356 -0.937054784961175 -5.279744576064058  2.524994411863564 -0.307899182343253 -5.257941630215678  2.574632820450045 0.3531084349228537 -5.254020561031156  2.465743861849647 1.006614152640354 -5.268052816559671  2.183897076015212 1.604484044160622 -5.301550147358176  1.722560240631265 2.07491696755195 -5.35506775502591  1.13806318635062 2.378906583716481 -5.422118662603529  1.742182153284979 2.73179858498085 5.854691697147836e-16  2.262480931380501 2.395264875892136 -2.601681534737615e-16  2.698000706832733 1.954727370266727 -3.903113804560263e-16  3.021530388777258 1.426473918441798 1.707421408502106e-16  3.223363606607101 0.8405687193648443 -2.844806418042028e-16  3.305434793487241 0.2261994274297442 -4.472186606099012e-16  3.269241566985055 -0.3926051469820059 3.171555149681837e-16  3.113478077610213 -0.9924495549400153 3.510830505762065e-16  2.840400132149515 -1.548806515270482 -1.707368614952523e-16  2.466120284856568 -2.042983582774378 9.732831365154574e-17  2.008125599488538 -2.460814027017948 -3.577575055983979e-16  1.482521285196868 -2.789563899556613 -4.886146623064541e-17  0.9057866143556688 -3.01678997208197 -2.439392613813594e-16  0.2964958724913082 -3.130681163554852 3.414395345104792e-16  -0.32338307292875 -3.126978161260848 2.926910878106614e-16  -1.29067345658392 -0.3506098753383553 -5.690421630247788  -1.068897680254163 -0.8451623229646739 -5.663999894259847  -0.6782440885714781 -1.219621806060448 -5.6187489875115  -0.168757542531344 -1.390394566692369 -5.560546895724229  0.3611301401510615 -1.294122251639114 -5.500717901478111  0.8191548613516448 -1.005201308695582 -5.449538098373106  1.16817203978903 -0.5892762115769014 -5.411042670828763  1.960898302630318 -0.551652302616722 -8.131516293641286e-17  1.751009740180289 -1.077278642631261 7.445724005953314e-16  1.394016468000002 -1.516729095803803 1.136104663605282e-15  0.9227767039454898 -1.830301465573364 3.434443593283319e-16  0.3780412068884804 -1.984007749105097 8.617772484356591e-16  -0.1885780664025548 -1.977994130030172 2.357202029695971e-16  -0.7327557451871473 -1.821291124380143 1.942410916395698e-17  -1.191068596016128 -1.491774666596192 2.975009434367945e-16  -1.480405544894888 -1.006855825633415 6.954512630084263e-16  -1.812414118534285 0.2561131097252937 -2.664867827914479  2.421751940242729 0.6298287624476981 -1.933377861698098  0.7556418177061754 1.42269463362527 -4.617654324361507  0.003134751711410342 1.574821943356493 -0.9318675177876981  1.015098001669947 1.51699057942374 -0.9441494884276413  0.6193243625380082 1.764115149411371 -1.862230514405671  -0.4757031201037318 1.549728101933577 -1.958273018773558  0.1126459993007786 1.698838152590054 -2.957602797129454  -0.3405660022430232 1.569615851499001 -4.678135257405353  1.818199099779932 0.7365610114574719 -3.763003518505052  -0.9541815370276669 1.23451227632913 -2.875526912859068  -1.269464226480212 1.016489154450913 -4.672047638709048  1.301562892980348 1.557566760682666 -2.802482532053872  -0.7813756340336595 1.414221906310649 -3.725761628685261  -1.58370798409762 0.5643609111372817 -3.581008460136619  -0.988817348255397 1.158392548936659 -1.014254585170146  -1.607700527190565 0.2800106654898483 -1.030081240453645  -1.388203055800784 0.7951310659851955 -1.943712885648593  0.8261955720421881 1.570157055202129 -3.620947225245673  1.681455131778566 1.410849015379531 -1.876189895849114  1.878739160554727 0.943024132521903 -0.9866418074548234  2.103426639579445 1.000735947836943 -2.593434794762663  1.62623803052506 0.6468498306152269 -4.727220189271843  -1.882943490361709 -0.1546739965127431 -1.761716647663214  0.05868355051519467 1.656538949473053 -3.863342338366238  2.465845305360337 0.2632819454094029 -2.663569745038379  1.994842599423799 0.5019775153043848 -0.4779055074204815  2.1671824130763 0.4980244878585698 -1.027636182799239  1.710213566460811 0.9718796190568162 -0.4957578884333736  1.845584590132108 0.2253887364997403 -4.583879812097906  1.579035044615276 0.2924902970866011 -5.101748935835201  1.409777182251665 0.7868327264427526 -5.07202467441607  -1.039178737375989 1.089168173550246 -5.170746090958521  -1.377687418630729 0.6683636420802941 -5.233117919580046  -1.641402128985454 0.4875654733502939 -4.648722230221863  -1.765467255797776 -0.2695484060062747 -1.079683539430899  -1.617858736076732 -0.08318463488274264 -0.5123563299218489  -1.474019211051276 0.4496529111656123 -0.5150171376928306  2.417677350191343 0.3274903893149403 -1.506992657970159 
[...]
<PointData  Vectors="displacement"> 
<DataArray  type="Float64"  Name="displacement"  NumberOfComponents="3" format="ascii">0.0000000000000000e+00 0.0000000000000000e+00 0.0000000000000000e+00  3.1572453278809681e-01 2.7223178521141361e-01 -4.0670388926687601e-01  -3.9772159615131802e-01 -1.2528544185992960e-01 -4.0768864135765764e-01  0.0000000000000000e+00 0.0000000000000000e+00 0.0000000000000000e+00  -4.0115959266835871e-01 2.8567523742699974e-01 -2.8670623919904342e-01  2.8955407163399061e-01 -2.2448974728046961e-01 -4.4826500940256470e-01  0.0000000000000000e+00 0.0000000000000000e+00 0.0000000000000000e+00  0.0000000000000000e+00 0.0000000000000000e+00 0.0000000000000000e+00  2.3066266374973779e-01 4.4535300047801867e-02 -2.9712244661341938e-02  3.5945291548197494e-01 1.0228952564485068e-01 -5.5394307412763577e-02  4.2328108649082480e-01 1.2352010477679640e-01 -1.0494372916696952e-01  4.6258637059779528e-01 1.4190513290867693e-01 -1.8248536100341806e-01  5.1218136007483006e-01 1.8742366097039995e-01 -2.7374779588944992e-01  5.2895318562591642e-01 2.3708619065999401e-01 -3.2711359191894968e-01  4.9794972062492221e-01 2.5853818343422863e-01 -3.4772173076252860e-01  4.3868368492684950e-01 2.6640699076669688e-01 -3.6603114261393133e-01  3.7857143327308068e-01 2.7577566948715543e-01 -3.9001101938826294e-01  1.5666753764832669e-01 3.9309416658411950e-01 -3.7368273666047847e-01  -8.0016208200873965e-03 4.4862275133696888e-01 -3.5748828014917006e-01  -1.6092447707855756e-01 4.5513046319046213e-01 -3.4074675226235601e-01  -2.9353129873062117e-01 4.0077692092875211e-01 -3.5341237253589924e-01  -3.9686576282122871e-01 3.0490478546342092e-01 -3.6481455716675676e-01  -4.5108942562366533e-01 1.7460109176410329e-01 -3.8294717477732748e-01  -4.5875676019286588e-01 2.6408330533712013e-02 -3.9693134962239462e-01  -2.6882950871135020e-01 -2.1061316983957766e-02 -3.8295581095372441e-02  -3.7880464192926316e-01 -1.0011437344242832e-01 -4.5742908729972429e-02  -3.9523834554489679e-01 -1.8532044591466346e-01 -9.0056643656698188e-02  -4.3674296478066688e-01 -2.0224089433626705e-01 -1.6717025196869792e-01  -4.7624725790384920e-01 -2.0691180888367541e-01 -2.3907140585788855e-01  -4.7452997560417859e-01 -2.4517281434254759e-01 -2.9288550706040550e-01  -4.6694198797881314e-01 -2.4172546342061221e-01 -3.1409542063778473e-01  -4.5935319185850326e-01 -1.9648045489575866e-01 -3.3133356789058060e-01  -4.3558750698595078e-01 -1.6139623537111203e-01 -3.7129603191175681e-01  0.0000000000000000e+00 0.0000000000000000e+00 0.0000000000000000e+00  0.0000000000000000e+00 0.0000000000000000e+00 0.0000000000000000e+00  0.0000000000000000e+00 0.0000000000000000e+00 0.0000000000000000e+00  0.0000000000000000e+00 0.0000000000000000e+00 0.0000000000000000e+00  0.0000000000000000e+00 0.0000000000000000e+00 0.0000000000000000e+00  0.0000000000000000e+00 0.0000000000000000e+00 0.0000000000000000e+00  0.0000000000000000e+00 0.0000000000000000e+00 0.0000000000000000e+00  0.0000000000000000e+00 0.0000000000000000e+00 0.0000000000000000e+00  0.0000000000000000e+00 0.0000000000000000e+00 0.0000000000000000e+00  -4.4534740418221874e-01 2.0153705320475493e-01 -2.9193401849700468e-01  -4.6945324641558167e-01 1.0277819160626692e-01 -2.9844798222424801e-01  -4.6807099141658010e-01 5.3741565201898970e-03 -3.1060150207199971e-01  -4.3164977753867367e-01 -9.1896277427193487e-02 -3.1368223241857102e-01  -3.7496006265478737e-01 -1.9055205569824188e-01 -3.2217165006973009e-01  -2.8889324430492508e-01 -2.7473518601033903e-01 -3.3160392264216165e-01  -1.8267493843242955e-01 -3.3069311333197177e-01 -3.3758132218284981e-01  -6.4690188848293306e-02 -3.5752075102497449e-01 -3.4134956051352217e-01  5.6563717244932407e-02 -3.5617272840568787e-01 -3.6140311821618432e-01  1.2829032391138429e-01 -3.2502100191589350e-01 -3.8201272066657660e-01  2.0429570181401921e-01 -2.7630835948836568e-01 -4.0679326518357151e-01  2.2542508395557093e-01 -3.6022368597020576e-01 -4.1761472643819936e-01  1.9962431887524301e-01 -4.1779414717723101e-01 -3.6233868482538550e-01  2.0542921873922473e-01 -4.0451970683366678e-01 -2.8711489646088617e-01  2.0180068424680558e-01 -3.7378784075455046e-01 -2.3171418243474409e-01  1.8637697002215420e-01 -3.5387929743430008e-01 -1.9402247201897904e-01  1.5127542604926059e-01 -3.1018375963114181e-01 -1.3639652592709064e-01  1.3417163866286866e-01 -2.5708357516322938e-01 -1.0049259342886849e-01  1.0245095112022010e-01 -2.2249203083047869e-01 -6.8403775737583494e-02  5.0334824744453284e-02 -1.3905367844665661e-01 -1.5208499898233084e-02  0.0000000000000000e+00 0.0000000000000000e+00 0.0000000000000000e+00  0.0000000000000000e+00 0.0000000000000000e+00 0.0000000000000000e+00  0.0000000000000000e+00 0.0000000000000000e+00 0.0000000000000000e+00  0.0000000000000000e+00 0.0000000000000000e+00 0.0000000000000000e+00  0.0000000000000000e+00 0.0000000000000000e+00 0.0000000000000000e+00  0.0000000000000000e+00 0.0000000000000000e+00 0.0000000000000000e+00  0.0000000000000000e+00 0.0000000000000000e+00 0.0000000000000000e+00  0.0000000000000000e+00 0.0000000000000000e+00 0.0000000000000000e+00  0.0000000000000000e+00 0.0000000000000000e+00 0.0000000000000000e+00  0.0000000000000000e+00 0.0000000000000000e+00 0.0000000000000000e+00  0.0000000000000000e+00 0.0000000000000000e+00 0.0000000000000000e+00  0.0000000000000000e+00 0.0000000000000000e+00 0.0000000000000000e+00  0.0000000000000000e+00 0.0000000000000000e+00 0.0000000000000000e+00  0.0000000000000000e+00 0.0000000000000000e+00 0.0000000000000000e+00  0.0000000000000000e+00 0.0000000000000000e+00 0.0000000000000000e+00  -3.7818045160110203e-01 3.2005209681275848e-01 -2.7440828250685223e-01  -3.3539608061374326e-01 3.5346488155851918e-01 -2.5812539894383191e-01  -2.7101993013655346e-01 3.8337898160452516e-01 -2.3603673246324969e-01  -2.0214306998349435e-01 3.9680644621904332e-01 -1.9329095723877202e-01  -1.6098967698159877e-01 3.7784276032585379e-01 -1.4427634926468944e-01  -1.2404611287242526e-01 3.3337872802131313e-01 -9.1346188119131463e-02  -9.4303695254217973e-02 2.7037839233955518e-01 -4.2471252113523997e-02  -7.0957791170768614e-02 1.8285572497613134e-01 2.2055739362941921e-03  -3.6560446844233173e-02 8.8641091118327686e-02 2.7855013057350903e-02  3.6680730353332708e-01 -1.4986917926047363e-01 -4.7381844908244058e-01  4.2596382491450185e-01 -4.8839932210680143e-02 -4.7469230762962727e-01  4.4310731682046628e-01 8.0098602274713146e-02 -4.6174347625771039e-01  4.1644192407342073e-01 2.1481661191971582e-01 -4.2745928424224666e-01  3.3343726620562958e-01 3.3441751221891902e-01 -3.9180531237790689e-01  2.2026231801940296e-01 4.2009579170650119e-01 -3.5552006929024849e-01  8.9521448126317626e-02 4.7157055497603095e-01 -3.2678709522579313e-01  -4.6838476549842294e-02 4.9253612366793492e-01 -3.1385938968604443e-01  -1.6687838854549084e-01 4.6503937722175875e-01 -2.9693924380050851e-01  -2.6157820187896869e-01 4.2499990964477924e-01 -2.8857055575833446e-01  -3.3177901910029461e-01 3.6304763981429333e-01 -2.8042809629587090e-01  0.0000000000000000e+00 0.0000000000000000e+00 0.0000000000000000e+00  0.0000000000000000e+00 0.0000000000000000e+00 0.0000000000000000e+00  0.0000000000000000e+00 0.0000000000000000e+00 0.0000000000000000e+00  0.0000000000000000e+00 0.0000000000000000e+00 0.0000000000000000e+00  0.0000000000000000e+00 0.0000000000000000e+00 0.0000000000000000e+00  0.0000000000000000e+00 0.0000000000000000e+00 0.0000000000000000e+00  0.0000000000000000e+00 0.0000000000000000e+00 0.0000000000000000e+00  0.0000000000000000e+00 0.0000000000000000e+00 0.0000000000000000e+00  0.0000000000000000e+00 0.0000000000000000e+00 0.0000000000000000e+00  0.0000000000000000e+00 0.0000000000000000e+00 0.0000000000000000e+00  0.0000000000000000e+00 0.0000000000000000e+00 0.0000000000000000e+00  0.0000000000000000e+00 0.0000000000000000e+00 0.0000000000000000e+00  0.0000000000000000e+00 0.0000000000000000e+00 0.0000000000000000e+00  0.0000000000000000e+00 0.0000000000000000e+00 0.0000000000000000e+00  0.0000000000000000e+00 0.0000000000000000e+00 0.0000000000000000e+00  -2.8541731817635713e-01 -2.6193836893678224e-01 -4.1118503332879663e-01  -1.2827658370476080e-01 -3.5508148514983467e-01 -4.1718854404154287e-01  5.9191526345905167e-02 -3.8545672005086301e-01 -4.1896239883446634e-01  2.3921689574856886e-01 -3.3555737260066798e-01 -4.3609685085635563e-01  3.8029940234764642e-01 -2.4019389897086155e-01 -4.4427303989642064e-01  4.4474407045449899e-01 -8.0199337558033823e-02 -4.4558450979011133e-01  4.1939404173690814e-01 1.0860336169348557e-01 -4.3224788598460145e-01  0.0000000000000000e+00 0.0000000000000000e+00 0.0000000000000000e+00  0.0000000000000000e+00 0.0000000000000000e+00 0.0000000000000000e+00  0.0000000000000000e+00 0.0000000000000000e+00 0.0000000000000000e+00  0.0000000000000000e+00 0.0000000000000000e+00 0.0000000000000000e+00  0.0000000000000000e+00 0.0000000000000000e+00 0.0000000000000000e+00  0.0000000000000000e+00 0.0000000000000000e+00 0.0000000000000000e+00  0.0000000000000000e+00 0.0000000000000000e+00 0.0000000000000000e+00  0.0000000000000000e+00 0.0000000000000000e+00 0.0000000000000000e+00  0.0000000000000000e+00 0.0000000000000000e+00 0.0000000000000000e+00  -5.9997579075776686e-01 8.0622509517020824e-02 -1.8810286396851747e-01  3.4280420721556654e-01 3.0384594455799535e-01 -1.3898044595046571e-01  -1.2165754639195898e-01 5.4154155651109726e-01 -2.9086224911206082e-01  -1.2085341438461390e-01 3.4987877171920273e-01 -7.3134574269436134e-02  5.0504077006392999e-02 3.4983782242726635e-01 -6.3985576735536634e-02  -7.7488891017252468e-02 5.1545350746959240e-01 -1.4463573479710043e-01  -3.4251663721732212e-01 4.6140344615412571e-01 -1.4701714932331134e-01  -2.6596340130532670e-01 5.6321683799274747e-01 -2.0300988387445829e-01  -4.1520750807220130e-01 4.0273254586935736e-01 -2.8524941054910991e-01  2.9372378386831111e-01 4.8145551285207944e-01 -3.0302488276215067e-01  -5.2743873351049275e-01 3.9996703717050813e-01 -1.8377375768594234e-01  -5.6141297824589054e-01 1.5381424685454939e-01 -2.9998576706482849e-01  6.2184718439552727e-02 5.5937403187774404e-01 -2.3019800660240911e-01  -5.0960120666377107e-01 3.9913417922489147e-01 -2.2477812997366661e-01  -6.3071433281376110e-01 1.2258275637747254e-01 -2.3643389239262147e-01  -3.0549184857458972e-01 2.6719130272469471e-01 -8.0450407821592962e-02  -3.9121678997257331e-01 9.7132182921183183e-02 -6.7860617718660629e-02  -5.2799846048348553e-01 2.5335308048265892e-01 -1.3353998106363679e-01  -7.8634843618119302e-02 5.8518491023757890e-01 -2.5503222113886054e-01  1.6501925978941498e-01 4.5257374326176819e-01 -1.3237189037889091e-01  2.2913165487430637e-01 2.6080217307551062e-01 -5.6394352373110149e-02  2.8341676040947178e-01 4.4308705498787138e-01 -2.2914245480674506e-01  1.9376450152920172e-01 4.4793278267802206e-01 -3.3364858679209308e-01  -5.1877805805587485e-01 1.0313151547000373e-02 -1.0934860721952126e-01  -3.0666595090438814e-01 5.3358489595884095e-01 -2.3886944276464434e-01  4.3200216348252263e-01 3.0561839306673377e-01 -2.5263295656527324e-01  1.8587139349396886e-01 9.3845350363571917e-02 -3.4051931777322325e-02  3.0028108148247029e-01 1.8576535201733654e-01 -5.2706103269134101e-02  1.4331675821654377e-01 1.5556007781574921e-01 -3.7272050012245400e-02  3.2685554905128877e-01 3.7240542894306322e-01 -3.5053675137923057e-01  2.4330614390739044e-01 3.7587743678612229e-01 -3.7143588676779188e-01  9.9998670686097135e-02 4.5441153277637414e-01 -3.4357796096245247e-01  -5.1337783640787504e-01 1.6055213070264610e-01 -3.4438386164779122e-01  -5.0143543632351040e-01 5.0823970085685805e-03 -3.6195867240755708e-01  -5.4584438842366689e-01 -2.2982682218012342e-02 -3.1446684708497769e-01  -4.0333750463525769e-01 4.2749863742084972e-03 -6.2820744408160462e-02  -2.3196203650491012e-01 2.9476346197236367e-02 -4.1058685937607593e-02  -2.1785083924884227e-01 8.2374042429053884e-02 -4.2863128024273146e-02  3.6695564812152348e-01 2.0772269291017859e-01 -8.8268943497156457e-02  4.0300963007654889e-01 2.2492219435026531e-01 -1.5640774161724005e-01  2.9794472803343236e-01 2.9492983893449276e-01 -8.5760488601491935e-02  4.5231858298569999e-01 2.2276386957343552e-01 -2.2190798741242837e-01  4.8809875787866869e-01 2.8031282975781097e-01 -2.9558467967045254e-01  3.7668500526910081e-01 3.0844848706074668e-01 -1.9403661401160707e-01  4.3418221350198893e-01 3.7264126908274764e-01 -3.1887887279144878e-01  3.7516464549944051e-01 3.8489942952030770e-01 -3.3029679036555515e-01  3.9897387167407822e-01 4.0625384693391353e-01 -3.0253028596630333e-01  2.4380385826221776e-01 4.7004785421111034e-01 -3.1238657492541300e-01  -6.1597448379796041e-02 5.0511708781462716e-01 -3.1986399690251105e-01  -2.1083253750823128e-01 4.8867949357183804e-01 -3.1666069469290342e-01  3.6889075690693697e-02 5.1654508513274267e-01 -3.1401470994983627e-01  -3.5529918668994681e-01 4.1159812416087305e-01 -3.1945069988761143e-01  -4.5718576126616423e-01 2.9547866115529559e-01 -3.2833192539930589e-01  -2.7947805865337422e-01 4.9472223358042333e-01 -2.8869342049233115e-01  -5.1308420291966150e-01 2.8790490445656480e-01 -2.9062906683492357e-01  -4.9915976342892299e-01 -9.6041303891644350e-02 -1.2812155012582893e-01  -4.5412598393997244e-01 -5.1133600925501489e-02 -7.6859252934530914e-02  -4.7407612718050895e-01 6.4054207881795028e-02 -8.6272470981911653e-02  -5.6999836508436008e-01 -8.1326094440346872e-02 -2.4357095941613133e-01  -5.3910294350403054e-01 -7.1607068512630642e-02 -1.8047728356389506e-01  -5.6973263018721576e-01 4.9643976606292661e-02 -1.4903800618411003e-01  -5.8609016696039506e-01 -3.7820996866881319e-02 -2.7736227829905313e-01  -5.8974364477528940e-01 -6.6858474051133016e-02 -2.6535447096565412e-01  -6.2240764015163486e-01 1.0492022179322891e-01 -2.1792761916032294e-01  -6.0661067374603628e-01 1.4211312190170486e-01 -2.5794597234815952e-01  -1.8631736629457732e-01 1.3446066180146904e-01 -4.8259735906600695e-02  -1.4398919644349642e-01 1.8098900256592648e-01 -5.3334190093225139e-02  -3.5962050429254994e-01 1.8517320771925544e-01 -7.7822093213053639e-02  -8.6205183619969206e-02 2.0481297463622083e-01 -5.1095342467163164e-02  -3.4109057654256578e-02 2.1497081083998407e-01 -4.8796356956771432e-02  -2.1535322273097371e-01 3.2128567538682146e-01 -8.0253500735307917e-02  2.2754627347110402e-02 2.1458742856972352e-01 -4.5517203069065988e-02  8.1967693031980399e-02 1.8705706869253830e-01 -3.7740139725533431e-02  -3.7436883391543614e-02 3.5612751358245343e-01 -6.5681706876546425e-02  1.4029606576676798e-01 3.1430958098527945e-01 -5.8425936259736598e-02  -5.9679225666001123e-01 2.5006495708400883e-01 -1.8220854444162060e-01  -6.0284648661451268e-01 2.7562689712048355e-01 -2.0235237689631938e-01  -5.4141513325028123e-01 3.3538263142023794e-01 -1.6000597449963405e-01  -5.8198051103678783e-01 1.8207101842488704e-01 -1.5539795061057202e-01  -5.4242180872207080e-01 1.3219466323101361e-01 -1.2174357415719472e-01  2.6284931518649424e-01 3.8445663910278466e-01 -1.3374323367419291e-01  2.1262717133053591e-01 3.6879210188597422e-01 -8.5295135506048989e-02  2.1633505280693854e-01 4.5051209851050800e-01 -1.7545483494695052e-01  3.1297302722557713e-01 3.7613827350752632e-01 -1.8536242267104394e-01  3.6226351508754301e-01 3.8260999172088173e-01 -2.4598911075008043e-01  -2.1418822959934200e-01 5.4582779735793230e-01 -2.6416975090829459e-01  -3.6734909726272613e-01 4.7920646359710184e-01 -2.5718014385408305e-01  8.8406538869578985e-02 5.4440012171792274e-01 -2.9273890624171395e-01  1.1450592546596576e-01 5.6221828305699439e-01 -2.8087490720611846e-01  -9.6930198534082690e-02 5.6998817547152725e-01 -2.7124267013406783e-01  -1.9622025818274713e-01 5.6949564758131110e-01 -2.4629132443223473e-01  -1.1323622206158374e-01 4.4566169547144652e-01 -9.9518037219652744e-02  -5.7143708721473091e-03 4.4717914499540629e-01 -9.8759434653769643e-02  -2.3561741364339264e-01 4.2059607791891807e-01 -1.0564393819205410e-01  -2.1133231240798889e-01 5.0422995592390107e-01 -1.4604093405791407e-01  -3.4323672947715528e-01 3.6895509298984369e-01 -1.1179563190919188e-01  4.8997300874985092e-02 4.9799949984418262e-01 -1.3577295979173265e-01  1.1154932672694039e-01 4.1991149091077878e-01 -9.4038723771398297e-02  -3.1633785977707513e-01 5.2666379936357344e-01 -1.7932653973668061e-01  -1.7155552758373294e-01 5.6099556252094185e-01 -1.8609516589752281e-01  -9.9263881536285167e-02 5.8029846306594357e-01 -2.1951269833943721e-01  -1.4613426841733545e-02 5.5021611131918657e-01 -1.8271549486869759e-01  1.1560967537639753e-01 5.1341610773198909e-01 -1.8517083351709965e-01  -4.4500429596206847e-01 4.5208685899127476e-01 -1.6935188263499687e-01  -4.1176185605423649e-01 4.9995711899588158e-01 -1.9154676937685286e-01  -4.5435964227583275e-01 3.7152683897535149e-01 -1.4032884270937154e-01  -4.3080709507389287e-01 2.7556048593839216e-01 -1.0698085168624535e-01  -5.2387964988721925e-01 4.0494676880284741e-01 -2.0250303632862479e-01  -4.0050459073062716e-01 5.0398420942060074e-01 -2.0859456586081468e-01  -1.7953351880150081e-01 5.7833002278567935e-01 -2.3066933785326321e-01  -6.2311372055270041e-04 5.8242839026786519e-01 -2.4837693400416144e-01  -4.1631334309567125e-01 4.7791128763296026e-01 -2.2670739240421459e-01  -2.9051812165510577e-01 5.5433322973719557e-01 -2.2099043601169371e-01  -4.6537851474505387e-01 4.0775704891942749e-01 -2.5091927055763513e-01  -5.5630750015714847e-01 2.8803105620260894e-01 -2.5628050456037915e-01  1.8075429209146990e-01 5.4533546102474284e-01 -2.7646876440010154e-01  3.0579727665154283e-01 4.7894119555046588e-01 -2.9000438535911677e-01  1.8141109074108094e-01 5.1241522642699910e-01 -2.3243688261406367e-01  -5.9806412119994834e-01 2.7230229331966360e-01 -2.2066171078732097e-01  -4.7946363993981123e-01 1.7319078058375198e-01 -1.0092078050483869e-01  8.1065559178923760e-02 -3.5112302433956377e-01 -1.7890615387696748e-01  -2.2528483045354306e-01 1.8578785025625939e-02 -1.2019816808495592e-03  -2.3033435541074976e-01 -3.5912728947376116e-01 -3.1823764164782009e-01  -2.1781241301485652e-01 -6.7199942610943919e-02 -1.7608122940823149e-02  -6.9030501946903147e-02 -1.8433840456577152e-01 -4.2486859168456043e-02  -4.1834386405047114e-01 -2.0301167254521565e-01 -3.0529225971955942e-01  -4.8895562651577035e-01 2.0711644026204408e-02 -2.7710116472520990e-01  -1.7568421747614782e-01 2.3349004007210919e-01 -3.4108944974648323e-02  -4.0112534781544396e-01 -2.2512523152027444e-01 -2.5590428037890955e-01  -3.5753823374348587e-01 3.1325536766391265e-01 -2.1818556617031315e-01  -1.8787492995907426e-01 -3.7804611821545925e-01 -2.6505956609836367e-01  -2.8623956404967238e-01 -2.8512492761563041e-01 -1.7041453044862925e-01  -1.1048729864812018e-01 -3.4814911857621644e-01 -1.7411466274717505e-01  -1.8570342389060351e-01 -2.6953305141883627e-01 -1.1970682987578549e-01  -3.6979084476783985e-01 -5.4791024716184203e-02 -8.7439109171930374e-02  -3.7104131193869400e-01 9.3559424819449066e-02 -7.4448429510233324e-02  -2.2635189227100141e-02 -4.0188541850626436e-01 -2.5612919839571691e-01  -4.6163557224532437e-01 -2.1250735295329771e-02 -1.7116781971195841e-01  -4.5917174825256957e-01 1.3296531793356706e-01 -1.7946183124103801e-01  6.2481871770365183e-02 -2.7674610566680558e-01 -1.1337589474761482e-01  -3.0168480192591673e-01 2.1371321596545489e-01 -6.6418921023929392e-02  -1.6378797038213608e-01 -1.5717459120570118e-01 -4.6035123714011715e-02  -6.9792014128062796e-02 -3.7098112857047782e-01 -3.1827334139029767e-01  7.8867319555648457e-04 -3.1661917473824164e-01 -1.3969786413050947e-01  -2.0074350068208879e-01 1.0530645228105595e-01 7.0718566277799019e-04  -2.6029097260981193e-01 3.3219501096623649e-01 -1.3043057945623682e-01  9.8701374391954894e-02 -3.9466645731669064e-01 -2.4529551282232048e-01  4.8448180773660143e-02 -3.9287766136318886e-01 -3.4423288889197140e-01  -4.1396130237473056e-01 2.5921276288449191e-01 -2.6470295418281126e-01  -1.3538193592833589e-01 1.2984469909535470e-01 1.05863273254