<?xml version="1.0"?>
<VTKFile type="UnstructuredGrid"  version="0.1"  >
<UnstructuredGrid>
<Piece  NumberOfPoints="1268" NumberOfCells="10568">
<Points>
<DataArray  type="Float64"  NumberOfComponents="3"  format="ascii">19.94716987487452 0.1317707561264319 -1.202466945460223e-10  13.74072606111497 -0.8614134488653272 -53.88997575085332  -12.85941478930618 1.916557790035214 -56.91288663606836  -15.9032616235459 -4.515196446136259 1.626303258728257e-16  4.950030257755883 25.21650519233041 -54.95391852657774  -4.107718940653654 -24.29115409112172 -55.8531208084276  -9.314707163843407 -30.06923447963563 4.87890977618477e-16  11.61824811771535 29.48440156756841 -3.391384395534658e-13  21.46749234505421 0.02696741478414759 -5.615078450779066  23.30988047973839 -0.00873250973709995 -11.13141311680313  25.40713632977715 -1.384292375506191 -16.37427654548237  26.45241452520652 -2.872312815961211 -21.8637082393926  25.04842461151312 -2.752146673621067 -27.46850782899552  22.87876352721185 -2.088259978706829 -32.83011632728322  21.37771360922677 -2.093380261300688 -38.44996501809416  19.70142554575494 -2.193701374385486 -44.01638277082749  17.01580801829277 -1.696632515169769 -49.15066532844666  13.98049690886424 4.419377546899955 -53.87643705321968  11.83972204621215 9.208338616597354 -54.13149504812257  7.621482426349402 12.34356207118232 -54.61782499987256  2.539805730796886 13.70727420898931 -55.19751404145363  -2.689415860383004 13.19053689498898 -55.78906487138381  -7.357170559581983 10.76180709179107 -56.31191713357971  -10.86003096318238 6.812820615514148 -56.69884670156523  -16.5706961757681 -5.275128747266272 -6.240725009925172  -18.29082870387909 -8.347372240299332 -11.53553189134448  -20.30635262011336 -10.97965926806997 -16.93320688638939  -21.48557703924963 -9.683820133813711 -22.95450526931833  -21.19047321408695 -7.521727279271558 -28.90676896601294  -19.72500555455803 -7.106310836492745 -35.09380855831461  -18.85028119342598 -4.902108162504233 -40.93718100793141  -18.32050776792238 -1.313823297003599 -46.17858136599065  -16.36180550340053 1.151199882480144 -51.65527944859976  -15.40434086810702 1.014447694855235 -7.644826989049428e-16  -13.39902801239663 6.191128040412099 2.218327606354497e-16  -9.949589579071262 10.53322092476122 2.12059320661159e-16  -5.243975458638881 13.46285776146202 7.754217898549941e-15  0.1399251627036286 14.81823287560149 3.252316763596149e-16  5.696211504784076 14.7677978548424 -7.207855520904863e-16  11.05448032340458 13.31487337928338 1.951563910473908e-15  15.61367740818086 10.18090979386763 -2.179459114756194e-15  18.60006992193919 5.515303023004559 1.369433074745588e-15  -1.52869286718376 25.06583809965366 -55.68804938302104  -7.781210310064857 23.35338381675429 -56.3924936695745  -13.40550096787874 20.11723800088065 -57.02178028336584  -18.03922993566052 15.55830170950866 -57.53534898075911  -21.44678763029901 10.00979069722826 -57.90734833138769  -23.46903237737564 3.811866585909049 -58.12061421922149  -24.06990243842066 -2.684488461825228 -58.17196438260218  -23.18433628103212 -9.144163570965761 -58.05488779558073  -20.59391262210163 -15.11004864267824 -57.74580158166453  -16.15755841275718 -19.83465489741105 -57.2306417450185  -10.43145925381342 -22.87058241276404 -56.57361969815248  -6.986882361605687 -24.20627649803484 -50.24556445072709  -8.272574030199392 -26.85291244074475 -44.76216325063943  -8.113210073272844 -31.18860027310894 -40.1596683617901  -7.618552434953354 -34.81598098596064 -35.04026669625046  -7.509882165597777 -36.09083979854663 -28.86473298216772  -7.986167670519318 -37.3248308408693 -22.68445488219849  -8.276969497603352 -38.10997815301133 -16.4593496945388  -7.425506523451622 -35.57242155569485 -10.78322423839125  -7.147449622328144 -32.1189056194362 -5.511080601316157  -14.82234509376526 -27.78582553401298 -5.854479658363816e-15  -19.70737176894139 -24.37284655419533 2.764697292186607e-15  -23.62818572203899 -19.88727212877528 2.439101268600111e-15  -26.42390785384022 -14.62244173776716 5.051059276813265e-15  -28.12149102113852 -8.9052423419162 2.276851973687203e-15  -28.77946727920729 -2.976446157883296 -1.219909928720168e-15  -28.42947107925845 2.978601752284433 4.065446096494692e-16  -27.0313036896374 8.77612211638721 -5.041496169361013e-15  -24.52324348076021 14.18519584933707 4.379274460317988e-15  -20.98265626135573 18.98294456130726 1.951060033519619e-15  -16.58391347368763 23.01023318502569 -1.789574489620802e-15  -11.54148079923361 26.19757341302747 -2.081203863085907e-14  -6.042202207747882 28.51073703499478 -3.577841418755691e-15  -0.2416138323675775 29.90516581461941 4.065982498622179e-15  5.710641261211448 30.28216945076794 -1.46882551317968e-15  6.414151130412097 26.96325287154043 -49.83333021490837  7.71852374565919 27.78456367279237 -44.45188759107248  8.80584520430601 27.3078881179073 -38.97720120696569  9.481597620953167 26.9798349057175 -33.43104559074628  9.815370707090803 27.78214865778854 -27.89250505759619  10.13475345489448 28.61817704396183 -22.35671116027784  10.55849759321274 28.98356228459238 -16.77594140621302  10.93646323460014 29.2793989028903 -11.18725590781912  11.24098871622056 29.57526991478201 -5.594169689370629  2.477015793419729 -24.15655802610486 -55.10682951113448  8.844491790088972 -22.45867158009595 -54.38931443942415  14.64891069119211 -19.32330028996181 -53.73934600293735  19.55087092649627 -14.89613175355717 -53.19502697776375  23.18355026965356 -9.37054784961175 -52.79744576064058  25.24994411863564 -3.07899182343253 -52.57941630215677  25.74632820450045 3.531084349228536 -52.54020561031156  24.65743861849647 10.06614152640354 -52.68052816559671  21.83897076015212 16.04484044160622 -53.01550147358176  17.22560240631265 20.7491696755195 -53.5506775502591  11.3806318635062 23.78906583716481 -54.22118662603528  17.42182153284979 27.3179858498085 5.854691697147835e-15  22.62480931380501 23.95264875892136 -2.601681534737615e-15  26.98000706832733 19.54727370266727 -3.903113804560263e-15  30.21530388777258 14.26473918441798 1.707421408502106e-15  32.23363606607101 8.405687193648443 -2.844806418042028e-15  33.05434793487241 2.261994274297442 -4.472186606099012e-15  32.69241566985055 -3.926051469820059 3.171555149681837e-15  31.13478077610213 -9.924495549400152 3.510830505762065e-15  28.40400132149515 -15.48806515270482 -1.707368614952523e-15  24.66120284856568 -20.42983582774378 9.732831365154574e-16  20.08125599488538 -24.60814027017948 -3.577575055983979e-15  14.82521285196868 -27.89563899556613 -4.886146623064541e-16  9.057866143556687 -30.1678997208197 -2.439392613813594e-15  2.964958724913082 -31.30681163554852 3.414395345104792e-15  -3.2338307292875 -31.26978161260848 2.926910878106614e-15  -12.9067345658392 -3.506098753383553 -56.90421630247788  -10.68897680254163 -8.451623229646739 -56.63999894259847  -6.782440885714781 -12.19621806060448 -56.187489875115  -1.68757542531344 -13.90394566692369 -55.60546895724229  3.611301401510615 -12.94122251639114 -55.0071790147811  8.191548613516447 -10.05201308695582 -54.49538098373105  11.6817203978903 -5.892762115769013 -54.11042670828763  19.60898302630318 -5.51652302616722 -8.131516293641285e-16  17.51009740180289 -10.77278642631261 7.445724005953313e-15  13.94016468000002 -15.16729095803803 1.136104663605282e-14  9.227767039454898 -18.30301465573364 3.434443593283319e-15  3.780412068884804 -19.84007749105097 8.617772484356591e-15  -1.885780664025548 -19.77994130030172 2.357202029695971e-15  -7.327557451871472 -18.21291124380143 1.942410916395698e-16  -11.91068596016128 -14.91774666596192 2.975009434367945e-15  -14.80405544894888 -10.06855825633415 6.954512630084263e-15  -18.12414118534285 2.561131097252937 -26.64867827914479  24.21751940242729 6.298287624476981 -19.33377861698098  7.556418177061754 14.2269463362527 -46.17654324361507  0.03134751711410341 15.74821943356493 -9.31867517787698  10.15098001669947 15.1699057942374 -9.441494884276413  6.193243625380081 17.64115149411371 -18.62230514405671  -4.757031201037318 15.49728101933577 -19.58273018773558  1.126459993007786 16.98838152590054 -29.57602797129454  -3.405660022430232 15.69615851499001 -46.78135257405353  18.18199099779932 7.365610114574718 -37.63003518505052  -9.541815370276669 12.3451227632913 -28.75526912859068  -12.69464226480212 10.16489154450913 -46.72047638709048  13.01562892980348 15.57566760682666 -28.02482532053872  -7.813756340336594 14.14221906310649 -37.2576162868526  -15.8370798409762 5.643609111372816 -35.81008460136619  -9.88817348255397 11.58392548936659 -10.14254585170146  -16.07700527190565 2.800106654898483 -10.30081240453645  -13.88203055800784 7.951310659851954 -19.43712885648593  8.261955720421881 15.70157055202129 -36.20947225245673  16.81455131778566 14.10849015379531 -18.76189895849114  18.78739160554727 9.430241325219029 -9.866418074548234  21.03426639579445 10.00735947836943 -25.93434794762663  16.2623803052506 6.468498306152269 -47.27220189271843  -18.82943490361709 -1.546739965127431 -17.61716647663214  0.5868355051519467 16.56538949473053 -38.63342338366238  24.65845305360337 2.632819454094029 -26.63569745038379  19.94842599423799 5.019775153043848 -4.779055074204815  21.671824130763 4.980244878585698 -10.27636182799239  17.10213566460811 9.718796190568161 -4.957578884333736  18.45584590132108 2.253887364997403 -45.83879812097906  15.79035044615276 2.924902970866011 -51.01748935835201  14.09777182251665 7.868327264427526 -50.7202467441607  -10.39178737375989 10.89168173550246 -51.70746090958521  -13.77687418630729 6.68363642080294 -52.33117919580046  -16.41402128985454 4.875654733502938 -46.48722230221863  -17.65467255797776 -2.695484060062747 -10.79683539430899  -16.17858736076732 -0.8318463488274263 -5.123563299218489  -14.74019211051276 4.496529111656123 -5.150171376928306  24.17677350191343 3.274903893149403 -15.06992657970159  26.06413084668878 1.878721166441188 -20.53248089559344  21.65449074798311 7.968123193988086 -14.5396292862516  26.00656336645273 -0.0677
[...]
<CellData  Scalars="f">
<DataArray  type="Float64"  Name="f"  format="ascii">30 30 18446744073709551615 18446744073709551615 30 10 18446744073709551615 30 10 18446744073709551615 18446744073709551615 18446744073709551615 18446744073709551615 18446744073709551615 10 18446744073709551615 18446744073709551615 10 18446744073709551615 18446744073709551615 18446744073709551615 18446744073709551615 18446744073709551615 18446744073709551615 18446744073709551615 30 30 18446744073709551615 30 30 18446744073709551615 18446744073709551615 30 30 18446744073709551615 18446744073709551615 18446744073709551615 18446744073709551615 18446744073709551615 18446744073709551615 30 18446744073709551615 18446744073709551615 18446744073709551615 18446744073709551615 18446744073709551615 18446744073709551615 18446744073709551615 18446744073709551615 18446744073709551615 18446744073709551615 30 30 18446744073709551615 18446744073709551615 30 30 18446744073709551615 18446744073709551615 30 30 18446744073709551615 18446744073709551615 18446744073709551615 18446744073709551615 30 18446744073709551615 18446744073709551615 18446744073709551615 18446744073709551615 18446744073709551615 18446744073709551615 18446744073709551615 18446744073709551615 30 30 18446744073709551615 18446744073709551615 30 10 18446744073709551615 10 18446744073709551615 18446744073709551615 10 18446744073709551615 18446744073709551615 10 18446744073709551615 18446744073709551615 18446744073709551615 40 40 18446744073709551615 18446744073709551615 40 40 18446744073709551615 40 18446744073709551615 18446744073709551615 18446744073709551615 18446744073709551615 40 18446744073709551615 18446744073709551615 18446744073709551615 18446744073709551615 18446744073709551615 18446744073709551615 18446744073709551615 18446744073709551615 40 40 18446744073709551615 18446744073709551615 40 40 18446744073709551615 40 40 18446744073709551615 18446744073709551615 18446744073709551615 40 18446744073709551615 18446744073709551615 18446744073709551615 18446744073709551615 18446744073709551615 18446744073709551615 18446744073709551615 40 40 18446744073709551615 18446744073709551615 40 10 18446744073709551615 10 18446744073709551615 18446744073709551615 10 18446744073709551615 18446744073709551615 18446744073709551615 18446744073709551615 40 10 18446744073709551615 40 40 18446744073709551615 18446744073709551615 40 10 18446744073709551615 18446744073709551615 18446744073709551615 10 18446744073709551615 18446744073709551615 18446744073709551615 18446744073709551615 30 30 18446744073709551615 18446744073709551615 30 18446744073709551615 18446744073709551615 30 18446744073709551615 18446744073709551615 18446744073709551615 30 30 18446744073709551615 18446744073709551615 30 18446744073709551615 18446744073709551615 18446744073709551615 18446744073709551615 30 18446744073709551615 18446744073709551615 18446744073709551615 18446744073709551615 18446744073709551615 18446744073709551615 18446744073709551615 18446744073709551615 18446744073709551615 18446744073709551615 30 30 18446744073709551615 18446744073709551615 30 18446744073709551615 18446744073709551615 18446744073709551615 30 18446744073709551615 18446744073709551615 18446744073709551615 18446744073709551615 18446744073709551615 18446744073709551615 18446744073709551615 18446744073709551615 30 30 18446744073709551615 30 18446744073709551615 18446744073709551615 18446744073709551615 18446744073709551615 30 18446744073709551615 18446744073709551615 18446744073709551615 18446744073709551615 18446744073709551615 18446744073709551615 18446744073709551615 18446744073709551615 18446744073709551615 18446744073709551615 18446744073709551615 30 30 18446744073709551615 30 18446744073709551615 18446744073709551615 18446744073709551615 18446744073709551615 30 18446744073709551615 18446744073709551615 18446744073709551615 18446744073709551615 18446744073709551615 18446744073709551615 30 30 18446744073709551615 18446744073709551615 30 18446744073709551615 18446744073709551615 18446744073709551615 18446744073709551615 18446744073709551615 30 18446744073709551615 18446744073709551615 18446744073709551615 18446744073709551615 18446744073709551615 18446744073709551615 18446744073709551615 18446744073709551615 18446744073709551615 18446744073709551615 30 30 18446744073709551615 18446744073709551615 30 18446744073709551615 18446744073709551615 18446744073709551615 18446744073709551615 30 18446744073709551615 18446744073709551615 18446744073709551615 18446744073709551615 18446744073709551615 18446744073709551615 18446744073709551615 18446744073709551615 18446744073709551615 18446744073709551615 30 30 18446744073709551615 30 18446744073709551615 18446744073709551615 18446744073709551615 18446744073709551615 30 18446744073709551615 18446744073709551615 18446744073709551615 18446744073709551615 18446744073709551615 18446744073709551615 18446744073709551615 18446744073709551615 30 18446744073709551615 18446744073709551615 18446744073709551615 18446744073709551615 30 18446744073709551615 18446744073709551615 18446744073709551615 18446744073709551615 18446744073709551615 18446744073709551615 18446744073709551615 18446744073709551615 18446744073709551615 30 30 18446744073709551615 18446744073709551615 30 18446744073709551615 18446744073709551615 18446744073709551615 30 18446744073709551615 18446744073709551615 18446744073709551615 18446744073709551615 18446744073709551615 18446744073709551615 18446744073709551615 18446744073709551615 30 30 18446744073709551615 18446744073709551615 30 18446744073709551615 18446744073709551615 18446744073709551615 18446744073709551615 18446744073709551615 18446744073709551615 18446744073709551615 18446744073709551615 18446744073709551615 18446744073709551615 18446744073709551615 18446744073709551615 18446744073709551615 30 30 18446744073709551615 18446744073709551615 30 18446744073709551615 18446744073709551615 18446744073709551615 30 18446744073709551615 18446744073709551615 18446744073709551615 18446744073709551615 18446744073709551615 18446744073709551615 18446744073709551615 18446744073709551615 30 30 18446744073709551615 18446744073709551615 30 18446744073709551615 18446744073709551615 18446744073709551615 18446744073709551615 30 18446744073709551615 18446744073709551615 18446744073709551615 18446744073709551615 18446744073709551615 18446744073709551615 18446744073709551615 18446744073709551615 18446744073709551615 18446744073709551615 30 30 18446744073709551615 18446744073709551615 30 18446744073709551615 18446744073709551615 18446744073709551615 30 18446744073709551615 18446744073709551615 18446744073709551615 18446744073709551615 18446744073709551615 18446744073709551615 18446744073709551615 18446744073709551615 30 30 18446744073709551615 18446744073709551615 30 18446744073709551615 18446744073709551615 18446744073709551615 30 18446744073709551615 18446744073709551615 18446744073709551615 18446744073709551615 18446744073709551615 18446744073709551615 18446744073709551615 18446744073709551615 18446744073709551615 18446744073709551615 18446744073709551615 30 18446744073709551615 18446744073709551615 18446744073709551615 30 18446744073709551615 18446744073709551615 18446744073709551615 18446744073709551615 18446744073709551615 18446744073709551615 18446744073709551615 18446744073709551615 30 30 18446744073709551615 18446744073709551615 18446744073709551615 30 18446744073709551615 18446744073709551615 30 18446744073709551615 18446744073709551615 18446744073709551615 18446744073709551615 18446744073709551615 18446744073709551615 18446744073709551615 18446744073709551615 18446744073709551615 18446744073709551615 18446744073709551615 18446744073709551615 18446744073709551615 18446744073709551615 30 30 18446744073709551615 30 18446744073709551615 18446744073709551615 18446744073709551615 30 18446744073709551615 30 18446744073709551615 18446744073709551615 18446744073709551615 18446744073709551615 18446744073709551615 18446744073709551615 18446744073709551615 18446744073709551615 18446744073709551615 18446744073709551615 18446744073709551615 30 30 18446744073709551615 18446744073709551615 30 18446744073709551615 18446744073709551615 18446744073709551615 18446744073709551615 30 18446744073709551615 18446744073709551615 18446744073709551615 18446744073709551615 18446744073709551615 18446744073709551615 18446744073709551615 18446744073709551615 18446744073709551615 18446744073709551615 18446744073709551615 30 30 18446744073709551615 18446744073709551615 30 18446744073709551615 18446744073709551615 18446744073709551615 18446744073709551615 30 18446744073709551615 18446744073709551615 18446744073709551615 18446744073709551615 18446744073709551615 18446744073709551615 18446744073709551615 18446744073709551615 18446744073709551615 18446744073709551615 18446744073709551615 18446744073709551615 18446744073709551615 30 30 18446744073709551615 18446744073709551615 30 18446744073709551615 18446744073709551615 18446744073709551615 30 18446744073709551615 18446744073709551615 18446744073709551615 18446744073709551615 18446744073709551615 18446744073709551615 18446744073709551615 18446744073709551615 30 30 18446744073709551615 18446744073709551615 30 18446744073709551615 18446744073709551615 18446744073709551615 30 18446744073709551615 18446744073709551615 18446744073709551615 18446744073709551615 18446744073709551615 18446744073709551615 18446744073709551615 18446744073709551615 30 30 18446744073709551615 18446744073709551615 30 18446744073709551615 18446744073709551615 18446744073709551615 30 18446744073709551615 18446744073709551615 18446744073709551615 18446744073709551615 18446744073709551615 18446744073709551615 18446744073709551615 18446744073709551615 18446744073709551615 18446744073709551615 18446744073709551615 30 30 18446744073709551615 18446744073709551615 30 18446744073709551615 18446744073709551615 18446744073709551615 18446744073709551615 30 18446744073709551615 18446744073709551615 18446744073709551615 18446744073709551615 18446744073709551615 18446744073709551615 18446744073709551615 18446744073709551615 18446744073709551615 18446744073709551615 30 18446744073709551615 18446744073709551615 18446744073709551615 18446744073709551615 30 18446744073709551615 18446744073709551615 18446744073709551615 18446744073709551615 18446744073709551615 18446744073709551615 18446744073709551615 18446744073709551615 18446744073709551615 18446744073709551615 30 10 18446744073709551615 30 18446744073709551615 18446744073709551615 18446744073709551615 18446744073709551615 10 18446744073709551615 18446744073709551615 18446744073709551615 18446744073709551615 18446744073709551615 18446744073709551615 30 10 18446744073709551615 30 18446744073709551615 18446744073709551615 18446744073709551615 18446744073709551615 10 18446744073709551615 10 18446744073709551615 18446744073709551615 18446744073709551615 18446744073709551615 18446744073709551615 18446744073709551615 30 10 18446744073709551615 30 18446744073709551615 18446744073709551615 18446744073709551615 18446744073709551615 10 18446744073709551615 18446744073709551615 18446744073709551615 18446744073709551615 18446744073709551615 18446744073709551615 30 10 18446744073709551615 30 18446744073709551615 18446744073709551615 18446744073709551615 10 18446744073709551615 10 18446744073709551615 18446744073709551615 18446744073709551615 18446744073709551615 30 10 18446744073709551615 30 18446744073709551615 18446744073709551615 18446744073709551615 18446744073709551615 10 18446744073709551615 18446744073709551615 18446744073709551615 18446744073709551615 18446744073709551615 18446744073709551615 30 10 18446744073709551615 30 18446744073709551615 18446744073709551615 18446744073709551615 10 18446744073709551615 18446744073709551615 18446744073709551615 18446744073709551615 30 10 18446744073709551615 30 18446744073709551615 18446744073709551615 18446744073709551615 18446744073709551615 10 18446744073709551615 18446744073709551615 18446744073709551615 18446744073709551615 18446744073709551615 18446744073709551615 30 10 18446744073709551615 30 18446744073709551615 18446744073709551615 18446744073709551615 10 18446744073709551615 10 18446744073709551615 18446744073709551615 18446744073709551615 18446744073709551615 30 18446744073709551615 18446744073709551615 18446744073709551615 10 18446744073709551615 18446744073709551615 18446744073709551615 18446744073709551615 40 40 18446744073709551615 40 18446744073709551615 18446744073709551615 18446744073709551615 40 18446744073709551615 18446744073709551615 18446744073709551615 18446744073709551615 18446744073709551615 18446744073709551615 40 40 18446744073709551615 18446744073709551615 40 18446744073709551615 18446744073709551615 40 18446744073709551615 18446744073709551615 18446744073709551615 40 18446744073709551615 18446744073709551615 18446744073709551615 18446744073709551615 18446744073709551615 18446744073709551615 18446744073709551615 18446744073709551615 40 40 18446744073709551615 18446744073709551615 40 18446744073709551615 18446744073709551615 40 18446744073709551615 18446744073709551615 18446744073709551615 18446744073709551615 18446744073709551615 18446744073709551615 40 40 18446744073709551615 18446744073709551615 40 18446744073709551615 18446744073709551615 18446744073709551615 40 18446744073709551615 18446744073709551615 18446744073709551615 18446744073709551615 18446744073709551615 40 40 18446744073709551615 18446744073709551615 40 18446744073709551615 18446744073709551615 18446744073709551615 40 18446744073709551615 18446744073709551615 18446744073709551615 18446744073709551615 18446744073709551615 18446744073709551615 18446744073709551615 18446744073709551615 18446744073709551615 18446744073709551615 18446744073709551615 40 40 18446744073709551615 18446744073709551615 40 18446744073709551615 18446744073709551615 18446744073709551615 40 18446744073709551615 18446744073709551615 18446744073709551615 18446744073709551615 18446744073709551615 18446744073709551615 18446744073709551615 18446744073709551615 40 40 18446744073709551615 18446744073709551615 40 18446744073709551615 18446744073709551615 18446744073709551615 40 18446744073709551615 18446744073709551615 18446744073709551615 18446744073709551615 18446744073709551615 40 40 18446744073709551615 18446744073709551615 40 18446744073709551615 18446744073709551615 18446744073709551615 40 18446744073709551615 18446744073709551615 18446744073709551615 18446744073709551615 18446744073709551615 18446744073709551615 18446744073709551615 18446744073709551615 40 40 18446744073709551615 18446744073709551615 40 18446744073709551615 18446744073709551615 18446744073709551615 40 18446744073709551615 18446744073709551615 18446744073709551615 18446744073709551615 18446744073709551615 18446744073709551615 18446744073709551615 18446744073709551615 40 40 18446744073709551615 18446744073709551615 40 18446744073709551615 18446744073709551615 18446744073709551615 40 18446744073709551615 18446744073709551615 18446744073709551615 18446744073709551615 18446744073709551615 18446744073709551615 18446744073709551615 18446744073709551615 40 18446744073709551615 18446744073709551615 18446744073709551615 40 18446744073709551615 18446744073709551615 18446744073709551615 18446744073709551615 18446744073709551615 18446744073709551615 18446744073709551615 18446744073709551615 40 40 18446744073709551615 40 18446744073709551615 18446744073709551615 18446744073709551615 18446744073709551615 40 18446744073709551615 18446744073709551615 18446744073709551615 18446744073709551615 18446744073709551615 18446744073709551615 18446744073709551615 18446744073709551615 18446744073709551615 40 40 18446744073709551615 40 18446744073709551615 18446744073709551615 18446744073709551615 40 18446744073709551615 18446744073709551615 18446744073709551615 18446744073709551615 18446744073709551615 18446744073709551615 18446744073709551615 40 40 18446744073709551615 40 18446744073709551615 18446744073709551615 18446744073709551615 40 18446744073709551615 18446744073709551615 18446744073709551615 18446744073709551615 18446744073709551615 18446744073709551615 18446744073709551615 40 40 18446744073709551615 18446744073709551615 40 18446744073709551615 18446744073709551615 18446744073709551615 40 18446744073709551615 18446744073709551615 18446744073709551615 18446744073709551615 18446744073709551615 18446744073709551615 40 40 18446744073709551615 18446744073709551615 40 18446744073709551615 18446744073709551615 18446744073709551615 40 18446744073709551615 18446744073709551615 18446744073709551615 18446744073709551615 18446744073709551615 18446744073709551615 18446744073709551615 18446744073709551615 40 40 18446744073709551615 18446744073709551615 40 18446744073709551615 18446744073709551615 18446744073709551615 40 18446744073709551615 18446744073709551615 18446744073709551615 18446744073709551615 18446744073709551615 18446744073709551615 18446744073709551615 18446744073709551615 40 40 18446744073709551615 18446744073709551615 40 18446744073709551615 18446744073709551615 18446744073709551615 40 18446744073709551615 18446744073709551615 18446744073709551615 18446744073709551615 18446744073709551615 18446744073709551615 18446744073709551615 18446744073709551615 40 40 18446744073709551615 18446744073709551615 40 18446744073709551615 18446744073709551615 18446744073709551615 40 18446744073709551615 40 18446744073709551615 18446744073709551615 18446744073709551615 18446744073709551615 18446744073709551615 18446744073709551615 18446744073709551615 18446744073709551615 40 18446744073709551615 40 18446744073709551615 18446744073709551615 18446744073709551615 18446744073709551615 18446744073709551615 18446744073709551615 18446744073709551615 18446744073709551615 18446744073709551615 18446744073709551615 40 10 18446744073709551615 40 18446744073709551615 18446744073709551615 18446744073709551615 10 18446744073709551615 18446744073709551615 18446744073709551615 18446744073709551615 40 10 18446744073709551615 40 18446744073709551615 18446744073709551615 18446744073709551615 18446744073709551615 18446744073709551615 18446744073709551615 40 10 18446744073709551615 40 18446744073709551615 18446744073709551615 18446744073709551615 10 18446744073709551615 18446744073709551615 18446744073709551615 18446744073709551615 40 10 18446744073709551615 40 18446744073709551615 18446744073709551615 10 18446744073709551615 18446744073709551615 40 10 18446744073709551615 40 18446744073709551615 18446744073709551615 18446744073709551615 10 18446744073709551615 18446744073709551615 18446744073709551615 18446744073709551615 40 10 18446744073709551615 40 18446744073709551615 18446744073709551615 18446744073709551615 10 18446744073709551615 18446744073709551615 18446744073709551615 18446744073709551615 40 10 18446744073709551615 40 18446744073709551615 18446744073709551615 18446744073709551615 10 18446744073709551615 18446744073709551615 18446744073709551615 18446744073709551615 40 10 18446744073709551615 40 18446744073709551615 18446744073709551615 18446744073709551615 18446744073709551615 10 18446744073709551615 18446744073709551615 10 18446744073709551615 18446744073709551615 18446744073709551615 18446744073709551615 18446744073709551615 40 10 18446744073709551615 40 18446744073709551615 18446744073709551615 18446744073709551615 10 18446744073709551615 18446744073709551615 18446744073709551615 18446744073709551615 40 10 18446744073709551615 40 18446744073709551615 18446744073709551615 18446744073709551615 18446744073709551615 18446744073709551615 18446744073709551615 40 10 18446744073709551615 40 18446744073709551615 18446744073709551615 18446744073709551615 10 18446744073709551615 18446744073709551615 18446744073709551615 18446744073709551615 40 10 18446744073709551615 40 18446744073709551615 18446744073709551615 18446744073709551615 10 18446744073709551615 10 18446744073709551615 18446744073709551615 18446744073709551615 18446744073709551615 40 10 18446744073709551615 40 18446744073709551615 184467440737095